<?xml version="1.0"?>
<VTKFile type="PolyData" version="0.1" byte_order="LittleEndian" compressor="vtkZLibDataCompressor">
	<PolyData>
		<Piece NumberOfPoints="2408" NumberOfVerts="0" NumberOfLines="0" NumberOfStrips="0" NumberOfPolys="4812">
		<PointData Normals="Normals">
		<DataArray type="Float32" Name="Normals" NumberOfComponents="3" format="ascii">
0.069913  0.416823  -0.906295
0.109702  0.371669  -0.921861
0.173677  0.439809  -0.881138
0.265284  0.359763  -0.894536
0.024498  0.396818  -0.91757
0.074598  0.412334  -0.907973
-0.265076  0.462655  -0.845982
-0.235045  0.46599  -0.852999
0.029617  0.44718  -0.893953
-0.226322  0.472548  -0.851749
0.015655  0.530111  -0.847784
0.050854  0.327643  -0.943432
0.079539  0.153964  -0.98487
0.085892  0.244198  -0.965914
0.071468  0.476218  -0.876418
0.218126  0.368581  -0.903642
0.205465  0.37776  -0.902819
0.027009  0.252995  -0.96709
-0.305558  0.445808  -0.841362
-0.176059  0.382534  -0.907012
-0.074173  0.486336  -0.870618
-0.011423  0.428737  -0.903357
-0.051735  0.43341  -0.89971
-0.446045  0.482594  -0.753755
-0.497444  0.477651  -0.724154
-0.421555  0.524242  -0.739907
-0.061232  0.288598  -0.95549
-0.095808  0.428696  -0.898354
0.073738  0.303038  -0.950121
0.027607  0.346433  -0.937668
-0.115458  0.576917  -0.808601
0.089316  0.453468  -0.886786
0.114736  0.14257  -0.983112
0.163601  0.081989  -0.983114
0.191261  0.033095  -0.980981
0.11583  0.338926  -0.933655
0.359787  0.35543  -0.862683
0.144962  0.360764  -0.921323
0.022121  0.178411  -0.983707
-0.230549  0.304319  -0.924249
-0.11148  0.185065  -0.976383
-0.487836  0.443903  -0.751642
-0.584044  0.474455  -0.658623
-0.410652  0.407665  -0.815582
-0.301434  0.467632  -0.830938
0.021871  0.460173  -0.88756
-0.265438  0.471167  -0.841156
-0.047756  0.444454  -0.894528
-0.680145  0.453268  -0.576152
-0.708263  0.452856  -0.541558
-0.710317  0.462945  -0.530219
-0.465443  0.472299  -0.74853
-0.683384  0.395412  -0.613706
0.00761  0.236439  -0.971617
0.026574  0.097146  -0.994915
0.015031  0.148079  -0.988861
0.034397  0.125274  -0.991526
-0.1599  0.456626  -0.875171
-0.084403  0.515889  -0.852487
0.110306  0.256791  -0.960152
0.078392  0.344514  -0.935503
-0.18819  0.535949  -0.823009
-0.087303  0.385907  -0.918398
0.044107  0.109539  -0.993003
-0.156693  0.529702  -0.833585
-0.093255  0.421096  -0.902209
-0.048572  0.352544  -0.934534
0.202133  -0.05757  -0.977665
0.335092  -0.129227  -0.933281
0.15456  -0.056057  -0.986392
0.307685  -0.098957  -0.946329
0.413678  -0.169315  -0.894541
0.053661  0.092544  -0.994262
0.126835  0.431288  -0.893254
0.323498  0.45945  -0.827197
0.371433  0.317146  -0.872614
0.38296  0.264237  -0.885166
0.431967  0.355431  -0.828899
0.478311  0.357181  -0.802272
-0.200768  0.320602  -0.925693
0.100066  0.28368  -0.953684
0.007775  0.143853  -0.989568
-0.043556  0.175325  -0.983547
-0.223879  0.210836  -0.951539
-0.388867  0.330589  -0.859938
-0.462829  0.43494  -0.77241
-0.095194  0.129044  -0.987059
-0.193193  0.189507  -0.962686
-0.635607  0.54201  -0.549754
-0.650667  0.451268  -0.610729
-0.567285  0.467765  -0.677778
-0.764913  0.521549  -0.378014
-0.771499  0.47594  -0.422222
-0.778199  0.41004  -0.475682
-0.286627  0.432726  -0.854747
-0.393143  0.285143  -0.874147
-0.9007  0.313063  -0.301215
-0.868365  0.295881  -0.397992
-0.843696  0.4201  -0.334205
-0.837495  0.46365  -0.289191
-0.788901  0.569496  -0.230887
-0.644941  0.257198  -0.719653
-0.889664  0.226931  -0.396233
0.141119  0.097279  -0.985202
0.089826  0.087899  -0.992071
0.063802  -0.091545  -0.993755
0.038206  -0.142026  -0.989125
0.153015  -0.168293  -0.973788
0.174139  -0.033518  -0.984151
-0.021288  0.058053  -0.998086
0.020778  -0.02831  -0.999383
0.034182  -0.196775  -0.979853
0.052278  -0.055808  -0.997072
-0.300576  0.605781  -0.73667
-0.40355  0.435773  -0.804518
-0.16079  0.35191  -0.92212
-0.098317  0.650552  -0.753071
0.220713  0.138647  -0.965434
0.340038  0.160901  -0.926545
0.365096  0.28187  -0.887274
0.337239  0.393194  -0.855376
0.139244  0.49009  -0.860478
-0.107492  0.423694  -0.899405
0.129615  -0.131942  -0.982747
-0.138932  0.602153  -0.786199
0.041895  0.46772  -0.882883
0.030448  0.445743  -0.894643
0.373661  -0.251565  -0.8928
0.270792  -0.281821  -0.920461
0.564193  -0.342752  -0.751137
0.477006  -0.302675  -0.825139
0.332511  -0.26003  -0.906543
0.359922  -0.366849  -0.857833
0.19531  -0.234794  -0.952221
0.069157  -0.024561  -0.997303
0.02873  0.069356  -0.997178
0.460018  -0.369265  -0.807482
0.57504  -0.434881  -0.69297
0.13912  0.545967  -0.826175
0.310084  0.497178  -0.810347
0.293259  0.441497  -0.847986
0.147933  0.360964  -0.920772
0.302801  0.397383  -0.866256
0.307434  0.425924  -0.850925
0.415796  0.344317  -0.84176
0.374914  0.498184  -0.781826
0.406548  0.466075  -0.785807
0.484898  0.316067  -0.815461
0.44169  0.320021  -0.838151
-0.33375  0.243883  -0.910567
-0.209191  0.243384  -0.947102
-0.363517  0.162275  -0.917345
-0.155016  0.305606  -0.939454
0.021975  0.126257  -0.991754
-0.269175  0.193635  -0.943425
-0.446731  0.175555  -0.877275
-0.56475  0.352695  -0.746099
-0.155209  0.162441  -0.974435
-0.350441  0.136685  -0.926557
0.016834  0.073859  -0.997127
0.063814  -0.099803  -0.992959
-0.263982  0.022352  -0.964268
-0.107804  0.011694  -0.994103
-0.705272  0.589017  -0.394525
-0.599123  0.318413  -0.734619
-0.69363  0.442042  -0.56875
-0.816692  0.518632  -0.253052
-0.866454  0.467547  -0.175092
-0.910834  0.412748  0.004552
-0.907918  0.370119  -0.196718
-0.935401  0.302765  -0.182644
-0.817171  0.356731  -0.452742
-0.725615  0.426977  -0.539605
-0.431683  0.108456  -0.895482
-0.476617  0.102873  -0.873071
-0.262274  0.111122  -0.958574
-0.930846  0.364924  -0.018894
-0.982688  0.176415  -0.056583
-0.974456  0.221463  -0.037277
-0.965924  0.213739  -0.145965
-0.867846  0.468722  -0.164754
-0.877121  0.479023  -0.034583
-0.771224  0.566242  -0.290832
-0.827563  0.561119  -0.016855
-0.847921  0.458001  0.266955
-0.692079  0.162588  -0.703272
-0.856608  0.167337  -0.488078
-0.96069  0.089107  -0.262936
-0.98519  0.12374  -0.118695
0.339469  -0.041756  -0.93969
0.192131  -0.101538  -0.976102
0.328218  -0.190132  -0.925269
0.225118  -0.133796  -0.965101
0.068366  -0.247995  -0.966346
0.136252  -0.351726  -0.926134
0.051087  -0.315488  -0.947553
0.062693  -0.38625  -0.920261
0.069282  -0.488107  -0.87003
0.276291  -0.450239  -0.849087
0.281739  -0.286869  -0.915603
0.085329  -0.293094  -0.952268
0.101963  -0.523013  -0.846204
0.08194  -0.619131  -0.781001
-0.503515  0.472587  -0.723281
-0.156277  0.521985  -0.838516
-0.431821  0.410123  -0.803324
0.383083  0.006978  -0.923687
0.484963  -0.015249  -0.874402
0.532523  0.176894  -0.827724
0.550648  0.304757  -0.777116
0.404336  0.445608  -0.798715
0.24064  0.525489  -0.81606
0.111366  0.607882  -0.786179
0.183192  -0.415861  -0.890786
-0.017056  0.450053  -0.892839
-0.367288  0.368908  -0.853819
0.094163  0.417419  -0.903822
-0.038662  0.455571  -0.889359
0.511239  -0.440998  -0.737669
0.34873  -0.457123  -0.818184
0.594552  -0.592654  -0.543388
0.591227  -0.466549  -0.657863
0.465702  -0.487446  -0.738592
0.372699  -0.478655  -0.794975
0.490794  -0.606126  -0.625885
0.194387  -0.318868  -0.927651
0.121664  -0.1895  -0.974314
0.058634  -0.062849  -0.996299
0.515337  -0.624433  -0.58695
0.07811  0.606665  -0.791111
0.201235  0.616691  -0.76105
-0.003235  0.428606  -0.903486
0.035744  0.432141  -0.901097
0.091775  0.370146  -0.924429
0.21168  0.299542  -0.930305
0.362645  0.259596  -0.895041
0.279269  0.281107  -0.918144
0.295703  0.598906  -0.744226
0.321811  0.523704  -0.788779
0.420983  0.209359  -0.882577
0.484096  0.119737  -0.866784
0.418787  0.393596  -0.818352
0.462617  0.254987  -0.849098
-0.254568  0.087609  -0.963078
-0.164246  0.0993  -0.981409
-0.113741  0.291639  -0.949742
-0.136405  0.344221  -0.928927
-0.515124  0.161393  -0.841783
-0.644619  0.129128  -0.75352
-0.433675  0.054323  -0.89943
-0.615409  0.18813  -0.765427
0.121314  -0.318102  -0.940263
0.191394  -0.467371  -0.863095
0.133288  -0.335071  -0.932717
-0.000272  -0.105174  -0.994454
-0.117514  -0.146495  -0.982207
-0.300852  -0.108931  -0.947429
-0.397261  -0.068124  -0.915174
-0.66634  0.308759  -0.678719
-0.910783  0.407724  -0.065089
-0.887935  0.428371  0.167542
-0.938617  0.261112  0.225431
-0.871965  0.31427  0.375382
-0.956004  0.292477  0.022665
-0.856563  0.326037  -0.399999
-0.881514  0.299912  -0.364671
-0.969276  0.188262  0.158306
-0.956186  0.249176  -0.153689
-0.747153  0.293812  -0.596186
-0.638694  0.084772  -0.764777
-0.74705  -0.002086  -0.664764
-0.549458  0.036219  -0.834736
-0.135311  0.027969  -0.990408
-0.398906  0.024566  -0.916663
-0.584896  -0.07032  -0.808054
-0.879813  0.443288  0.171539
-0.95573  0.172041  0.23871
-0.882947  0.33992  0.323818
-0.980854  0.08546  0.174993
-0.987417  0.103727  0.119368
-0.886668  0.428563  0.173649
-0.877231  0.389764  0.280268
-0.831817  0.350951  0.430016
-0.848466  0.054366  -0.526451
-0.958827  -0.019431  -0.283324
-0.985668  -0.01571  -0.167967
-0.998629  -0.009001  -0.051566
-0.998579  0.007779  0.052715
0.48351  -0.227327  -0.845305
0.323514  -0.359188  -0.875398
0.275686  -0.243367  -0.92993
0.469834  -0.440143  -0.7652
0.32748  -0.332109  -0.884568
0.115774  -0.487298  -0.865527
0.244911  -0.65075  -0.71871
0.143295  -0.652332  -0.744265
0.122288  -0.737701  -0.66396
0.357974  -0.592211  -0.7219
0.185905  -0.69113  -0.698411
0.062414  -0.791328  -0.608197
0.124132  -0.80078  -0.585955
0.032897  0.591972  -0.805287
-0.365935  0.367199  -0.855135
-0.226947  0.56611  -0.792473
0.65241  -0.023351  -0.757506
0.602593  -0.256829  -0.755593
0.730843  0.087062  -0.676971
0.708841  0.237618  -0.664141
0.619028  0.357727  -0.699168
0.547703  0.497646  -0.672585
0.177046  0.632218  -0.754291
0.358571  0.600325  -0.714868
0.945714  0.214381  -0.244268
0.034833  0.726381  -0.686409
0.810829  0.385021  -0.440812
0.142996  0.69104  -0.708531
-0.163827  0.345448  -0.924028
-0.115661  0.581153  -0.805533
0.672164  -0.582924  -0.456504
0.441838  -0.761573  -0.474115
0.551583  -0.728248  -0.406708
0.587679  -0.724399  -0.360387
0.643713  -0.571979  -0.508403
0.667211  -0.57977  -0.46765
0.347814  -0.545004  -0.762887
0.511623  -0.600962  -0.614074
0.207149  -0.44775  -0.869833
0.084343  0.712552  -0.696531
0.24081  0.68545  -0.687146
-0.027139  0.369909  -0.928671
-0.189971  0.506199  -0.841233
-0.213384  0.358607  -0.908773
-0.212078  0.424841  -0.880075
-0.179756  0.341821  -0.922413
-0.209172  0.212312  -0.954553
0.020227  0.179464  -0.983556
0.230482  0.039884  -0.972259
0.301751  -0.014691  -0.953274
0.353776  0.00063  -0.93533
0.296481  0.723268  -0.623684
0.397391  0.728101  -0.558524
0.546039  0.494219  -0.676453
0.385455  0.417021  -0.823115
0.222395  0.454103  -0.862746
0.456151  -0.041239  -0.888946
0.376689  0.117717  -0.91883
0.64342  -0.066174  -0.762648
0.540911  0.129635  -0.831029
0.435652  0.35779  -0.82595
0.542058  0.351861  -0.76313
0.506222  0.224609  -0.83264
0.397414  0.136404  -0.907445
0.489206  -0.05614  -0.87036
-0.12181  0.114589  -0.985917
-0.244823  0.021999  -0.969318
-0.052854  0.234366  -0.970711
0.007725  0.376097  -0.926548
-0.597254  0.183085  -0.780876
-0.700705  -0.015345  -0.713286
-0.799429  0.091548  -0.593744
-0.868048  -0.035574  -0.495205
-0.838801  0.206261  -0.503853
-0.553296  -0.108498  -0.825888
0.215216  -0.6016  -0.769259
0.240285  -0.595509  -0.766572
0.292617  -0.690724  -0.661268
0.069277  -0.399309  -0.914195
-0.164885  -0.258346  -0.951877
-0.436764  -0.246038  -0.865276
-0.318702  -0.297287  -0.900027
-0.252149  -0.286952  -0.924164
-0.801065  0.364776  0.474588
-0.935755  0.20265  0.288611
-0.88981  0.192473  0.413754
-0.868217  0.210233  0.449445
-0.833013  0.321516  0.450241
-0.981446  0.1915  -0.009514
-0.946564  0.127624  0.296191
-0.973523  0.15188  0.17084
-0.928581  0.110769  0.354215
-0.937927  0.123688  -0.324028
-0.912762  -0.10487  -0.394802
-0.822105  -0.082906  -0.563267
-0.721145  -0.058203  -0.690335
-0.816583  -0.003229  -0.577219
-0.610132  0.046681  -0.790924
-0.780833  -0.091887  -0.617946
-0.82409  0.328241  0.461665
-0.850801  0.175098  0.495458
-0.924537  0.040667  0.378917
-0.979845  -0.08597  0.180315
-0.949527  -0.078755  -0.303639
-0.994353  -0.099861  0.035906
-0.987183  0.022138  -0.158052
-0.960225  -0.030796  -0.277523
-0.99068  -0.13181  0.03433
0.582111  -0.465345  -0.666784
0.363144  -0.493561  -0.790269
0.470316  -0.638734  -0.608951
0.560112  -0.612171  -0.558141
0.19502  -0.775742  -0.60016
0.297662  -0.754047  -0.5855
0.392592  -0.682299  -0.616717
0.264962  -0.869256  -0.417359
0.013648  -0.73794  -0.674728
0.969669  -0.225806  -0.093565
0.803107  -0.437323  -0.404682
0.007675  -0.691544  -0.722294
0.667633  0.49523  -0.55589
-0.102969  0.672684  -0.73273
0.751841  -0.266381  -0.603139
0.72775  -0.28799  -0.622448
0.740312  -0.235508  -0.629662
0.668121  -0.467941  -0.578486
0.829519  -0.082454  -0.552359
0.829148  0.100274  -0.549962
0.782602  0.265264  -0.563178
0.699105  0.38389  -0.603225
0.751324  0.385402  -0.535703
0.594105  0.574125  -0.563401
0.351756  0.712124  -0.607575
0.17306  0.709836  -0.682776
0.205919  0.782327  -0.587845
0.762298  -0.497589  -0.413893
0.738837  -0.629039  -0.241723
0.165637  -0.924053  -0.344514
0.496376  -0.825881  -0.267454
0.48906  -0.708792  -0.508365
0.525678  -0.824328  -0.21011
0.550165  -0.819977  -0.157975
0.549601  -0.813153  -0.191626
0.546523  -0.78274  -0.297709
0.626517  -0.591479  -0.507572
0.639343  -0.45191  -0.622107
0.299111  -0.653537  -0.695286
0.211324  0.755093  -0.620626
-0.464238  0.545807  -0.697552
-0.534776  0.443906  -0.719
-0.408394  0.455261  -0.791172
-0.445221  0.561679  -0.697349
-0.44055  0.431953  -0.786977
-0.631224  0.349387  -0.692449
-0.542786  0.331492  -0.771684
-0.357362  0.287364  -0.888659
-0.174528  0.206631  -0.962727
-0.216784  0.196044  -0.956332
0.58445  0.186235  -0.789769
-0.021899  0.105633  -0.994164
0.055425  0.055995  -0.996891
0.162006  0.028888  -0.986367
0.249392  -0.089948  -0.964216
0.262991  -0.111414  -0.958344
0.174909  -0.158344  -0.971769
0.471347  -0.132563  -0.871928
0.283141  -0.231203  -0.930793
0.436877  0.114029  -0.892265
0.394188  0.730104  -0.558179
0.464232  0.799893  -0.380343
0.578679  0.663467  -0.47428
0.346919  0.774763  -0.528573
0.588893  0.560598  -0.582181
0.60192  0.349528  -0.717999
0.307091  0.11168  -0.945105
0.209913  -0.092134  -0.973369
0.556085  -0.272828  -0.78507
0.402871  -0.185394  -0.896283
0.559745  0.142338  -0.816349
0.460156  0.088382  -0.883428
0.31479  -0.126006  -0.94076
0.463336  -0.079206  -0.882636
0.403145  -0.359787  -0.841444
-0.415275  0.039059  -0.908857
-0.303456  0.163174  -0.93877
-0.493933  0.04246  -0.868463
-0.50245  0.30826  -0.807787
-0.206179  0.40055  -0.892776
-0.730186  -0.205714  -0.651544
-0.858197  -0.183809  -0.479282
-0.942168  -0.05801  -0.330082
-0.951893  -0.152348  -0.265877
-0.966437  -0.092652  -0.239614
-0.672223  -0.334262  -0.660594
-0.581955  -0.31723  -0.748794
0.27109  -0.762228  -0.587808
0.311431  -0.81365  -0.490903
0.016547  -0.47706  -0.878715
0.164571  -0.690999  -0.703873
0.321033  -0.78987  -0.522536
0.387795  -0.858499  -0.33555
-0.525832  -0.491266  -0.694376
-0.417767  -0.416125  -0.807657
-0.28165  -0.568063  -0.77329
-0.120285  -0.547016  -0.828435
-0.096717  -0.463108  -0.881009
-0.693407  0.243589  0.678123
-0.694034  0.407986  0.593181
-0.728023  0.505726  0.462843
-0.763583  0.437224  0.475158
-0.926876  -0.003073  0.375356
-0.908448  -0.0099  0.417881
-0.879502  0.168192  0.445184
-0.87553  0.049109  0.480661
-0.850388  0.240594  0.467926
-0.865643  0.22494  0.447286
-0.991057  0.068172  -0.114711
-0.941415  0.142365  0.305728
-0.998545  0.043167  0.03231
-0.8454  0.032746  0.533129
-0.881733  0.033255  0.470575
-0.885869  -0.045761  -0.461674
-0.916333  0.009539  -0.400304
-0.738222  0.049954  -0.672705
-0.894984  0.211687  0.392673
-0.767116  0.264036  0.584652
-0.805869  0.140209  0.575254
-0.782725  0.332816  0.525905
-0.917718  -0.169605  0.359205
-0.963249  -0.18361  0.196057
-0.968331  -0.193602  0.157651
-0.975345  -0.198481  0.096476
-0.977465  -0.192288  0.087105
-0.981093  -0.129051  0.144229
-0.987875  -0.141339  0.064241
-0.996875  -0.031812  -0.072311
-0.992784  -0.097451  0.069874
-0.948155  0.178897  -0.262673
-0.904644  0.23166  -0.357705
-0.923239  0.065739  -0.378559
-0.980227  0.081374  -0.180368
-0.993411  -0.022901  -0.112296
0.614691  -0.618564  -0.489421
0.485583  -0.679192  -0.55037
0.642743  -0.638853  -0.422786
0.591622  -0.649154  -0.478103
0.120926  -0.880736  -0.457909
0.198654  -0.849896  -0.488071
0.405933  -0.747063  -0.526418
0.210485  -0.849164  -0.484372
0.848934  -0.471833  -0.238085
-0.061424  -0.690477  -0.720742
0.931049  -0.323332  -0.169124
0.968738  -0.176471  -0.174367
0.571499  -0.481077  -0.664796
0.712593  -0.464658  -0.525647
0.707102  -0.555543  -0.43747
0.782402  -0.356839  -0.510406
0.591872  -0.683263  -0.427597
0.883022  0.007829  -0.469267
0.875066  -0.137299  -0.464122
0.845729  0.21479  -0.488475
0.798012  0.39356  -0.456386
0.436383  0.663669  -0.607547
0.614782  0.560481  -0.554891
0.803876  -0.474738  -0.358339
0.714821  -0.353792  -0.60321
0.712859  -0.621947  -0.324058
0.174908  -0.820171  -0.544726
0.390187  -0.805947  -0.4452
0.452413  -0.877815  -0.157363
0.466322  -0.884593  0.006184
0.452852  -0.889672  -0.058389
0.520244  -0.76958  -0.370261
0.454681  -0.869388  -0.193467
0.479988  -0.600768  -0.639288
0.428493  -0.368207  -0.825116
-0.708864  0.438688  -0.552326
-0.704019  0.411737  -0.578645
-0.802652  0.295927  -0.517859
-0.702848  0.323218  -0.633668
-0.556009  0.248825  -0.793057
-0.708123  0.15428  -0.689028
-0.6637  0.396837  -0.634053
-0.812085  0.317922  -0.48933
-0.621723  0.150204  -0.7687
-0.456564  0.153622  -0.876327
-0.317847  0.182477  -0.930417
0.78276  0.124759  -0.60969
0.016686  0.252887  -0.967352
-0.103867  0.230557  -0.9675
0.601658  0.157224  -0.783127
0.01608  0.204461  -0.978742
0.173976  0.031431  -0.984248
0.074796  0.254445  -0.96419
0.147869  -0.126716  -0.980856
0.267946  -0.298249  -0.916107
0.380386  0.079919  -0.921368
0.24044  -0.218231  -0.945814
0.3098  -0.137126  -0.940862
0.600706  0.759712  -0.248977
0.478285  0.79285  -0.377667
0.714668  0.592348  -0.371985
0.694992  0.381761  -0.609299
0.711593  0.438165  -0.549223
0.371843  0.704389  -0.604623
0.696742  0.347411  -0.62758
0.693391  0.092248  -0.714633
0.246991  -0.279353  -0.927878
0.434497  -0.327893  -0.838867
0.278256  -0.295096  -0.914052
0.710588  -0.016415  -0.703417
0.670386  -0.103665  -0.734736
0.515905  -0.122364  -0.847862
0.415327  -0.258132  -0.872279
-0.659463  0.066767  -0.748766
-0.750979  0.166598  -0.638965
-0.800546  -0.310216  -0.51273
-0.876425  -0.30913  -0.369213
-0.95282  -0.291888  -0.083278
-0.988672  -0.14732  -0.028696
-0.630226  -0.517783  -0.578546
-0.713655  -0.481621  -0.508662
0.331209  -0.888469  -0.317686
0.40472  -0.907904  -0.10914
0.201426  -0.920088  -0.335954
0.029872  -0.753031  -0.657307
0.369142  -0.906436  -0.205203
0.442057  -0.894899  -0.061159
-0.538334  -0.740033  -0.403173
-0.455887  -0.648946  -0.609127
-0.430262  -0.614365  -0.661385
-0.483549  -0.485492  -0.728339
-0.122908  -0.8575  -0.499587
-0.852636  0.357222  0.38132
-0.771582  0.450592  0.44903
-0.84516  0.387738  0.367917
-0.909354  -0.117353  0.399128
-0.891967  0.094633  0.442085
-0.861215  -0.044105  0.506323
-0.828946  0.327826  0.453187
-0.978481  -0.104654  0.177826
-0.922121  -0.128905  0.364798
-0.826817  -0.270818  0.492982
-0.715016  -0.304499  0.629311
-0.764756  -0.065547  0.640977
-0.643321  0.388444  0.659735
-0.812358  0.076251  0.578153
-0.783034  0.335132  0.523969
-0.664531  0.465298  0.584719
-0.937215  -0.308655  0.162356
-0.902582  -0.261566  0.34195
-0.961605  -0.230504  0.148942
-0.97539  -0.207606  0.074256
-0.990413  -0.128312  0.051163
-0.980252  -0.187017  0.064263
-0.993257  -0.10569  -0.047639
-0.959544  0.161472  -0.230657
-0.875357  0.277514  -0.395899
-0.967374  0.006241  -0.253274
-0.98606  -0.070623  -0.150661
0.681873  -0.645376  -0.344296
0.565124  -0.693952  -0.446168
0.720951  -0.608449  -0.33169
0.672293  -0.591559  -0.445063
0.618449  -0.723166  -0.307491
0.683914  -0.69569  -0.219721
0.177998  -0.720213  -0.67053
-0.007787  -0.96875  -0.247917
0.069049  -0.961671  -0.265371
0.157615  -0.95653  -0.245374
0.134577  -0.90303  -0.407952
0.404536  -0.827873  -0.388558
0.17197  -0.9304  -0.323702
0.682825  -0.409703  -0.604891
0.19672  -0.484912  -0.852151
0.405898  -0.416472  -0.813509
0.611677  -0.670763  -0.419437
0.693534  -0.570958  -0.439338
0.66701  -0.692475  -0.274911
0.555543  -0.757663  -0.342517
0.836535  -0.383347  -0.391476
0.888926  -0.030514  -0.457034
0.9076  -0.189937  -0.374415
0.8767  0.099267  -0.470683
0.898366  0.209751  -0.385933
0.9295  0.286531  -0.23223
0.905533  0.352581  -0.236001
0.790928  0.418508  -0.446413
0.578196  0.512404  -0.634927
0.536625  0.57942  -0.613438
0.435059  -0.479929  -0.761834
0.433799  -0.900985  0.006679
0.427382  -0.90049  0.080385
0.434199  -0.900594  0.020051
0.239227  -0.969995  -0.043366
0.335712  -0.92871  -0.157465
0.391676  -0.886233  -0.247347
0.391747  -0.828487  -0.400179
-0.893976  0.171688  -0.413921
-0.864762  0.034623  -0.500988
-0.7774  0.093334  -0.622044
-0.821202  0.018032  -0.570353
-0.697728  0.059104  -0.71392
-0.19768  0.187539  -0.96216
-0.648487  0.095432  -0.75522
-0.22392  0.237986  -0.945104
-0.200304  0.298071  -0.933291
-0.042723  0.321149  -0.946064
-0.106648  0.339865  -0.934408
-0.320543  0.211896  -0.923229
-0.084895  0.318332  -0.94417
0.296787  0.116729  -0.947783
0.241121  0.324695  -0.914568
0.086642  0.385672  -0.918559
0.33989  -0.095766  -0.935577
0.267152  -0.161526  -0.950021
0.418523  0.195614  -0.88689
0.674793  0.670285  -0.308826
0.610634  0.614293  -0.49977
0.662036  0.683232  -0.308061
0.473506  0.662205  -0.580755
0.674074  0.735236  -0.071083
0.731608  0.415544  -0.540437
0.706079  0.247688  -0.663403
0.747008  0.127457  -0.652483
0.747881  0.101678  -0.655999
0.736769  0.246568  -0.629584
0.784156  -0.018044  -0.620302
0.33474  -0.249945  -0.908558
0.502348  -0.147071  -0.852066
0.582803  -0.274688  -0.764779
0.609893  -0.091354  -0.787201
0.748597  -0.120141  -0.652049
0.585881  0.001827  -0.810395
0.661813  0.119886  -0.740021
-0.781131  -0.406293  -0.474088
-0.774363  -0.555878  -0.302261
-0.793332  -0.418378  -0.44225
-0.868404  -0.459798  -0.185635
-0.79812  -0.600403  0.050207
-0.907086  -0.392649  0.151729
-0.596553  -0.694383  -0.402439
-0.628626  -0.682697  -0.372497
0.439064  -0.896309  0.062073
-0.078147  -0.991267  -0.106217
0.319813  -0.946228  0.048718
-0.374578  -0.885843  -0.273812
-0.428086  -0.888814  -0.163558
-0.446402  -0.679206  -0.582584
-0.323679  -0.852094  -0.411301
-0.830794  -0.245715  0.499405
-0.875885  -0.206311  0.43619
-0.79195  -0.103765  0.601705
-0.801074  0.117287  0.586961
-0.871511  -0.152858  0.465944
-0.8097  0.280115  0.515675
-0.633242  -0.384019  0.671963
-0.780196  -0.209675  0.589347
-0.87867  -0.390335  0.274914
-0.768359  -0.509092  0.387878
-0.568933  -0.63437  0.523344
-0.515627  -0.652077  0.555809
-0.686176  0.32332  0.651634
-0.555536  0.492656  0.669829
-0.644223  0.451109  0.617639
-0.830218  0.038411  0.556113
-0.907531  -0.365498  0.20688
-0.869946  -0.322  0.37351
-0.946857  -0.320234  0.030201
-0.875622  -0.440896  0.197223
-0.989125  -0.144082  0.029525
-0.983789  -0.159266  0.082421
-0.987898  -0.149027  0.04299
-0.988367  -0.140226  0.058883
-0.984711  -0.170485  -0.035768
-0.97972  -0.084886  -0.181501
-0.985886  -0.163132  0.037645
-0.983525  -0.169396  -0.063113
-0.984307  -0.17641  0.004425
-0.983034  -0.113316  -0.144237
-0.976764  -0.095116  -0.192054
-0.932879  -0.072464  -0.352824
-0.89163  -0.005315  -0.452734
0.642258  -0.699517  -0.313338
0.527975  -0.782536  -0.329971
0.695705  -0.624942  -0.354178
0.774141  -0.628092  -0.078783
0.673838  -0.698132  -0.241979
0.569883  -0.79285  -0.215919
0.694461  -0.71422  -0.087255
0.708398  -0.701964  -0.073611
-0.060282  -0.983671  -0.169579
-0.020264  -0.987187  -0.158273
0.060045  -0.99365  -0.095153
0.332832  -0.90763  -0.255793
0.637381  -0.687994  -0.347
0.797379  -0.56651  -0.207976
0.880648  -0.426808  -0.205653
0.924405  -0.106704  -0.366183
0.900811  -0.310764  -0.303258
0.949374  0.115691  -0.29207
0.970102  0.183686  -0.158621
0.971728  0.176942  0.15632
0.953412  0.301513  0.00983
0.818895  0.362877  -0.444669
0.974877  0.214176  -0.061182
0.927598  0.310555  -0.207648
0.617918  0.457775  -0.639234
0.796352  0.393981  -0.458914
0.662108  0.531339  -0.528481
0.358364  -0.909842  0.209197
0.358988  -0.93022  0.076278
0.272915  -0.946002  0.174924
0.063149  -0.997953  0.010115
-0.858708  -0.032762  -0.511417
-0.50439  0.206757  -0.838357
-0.728592  0.086166  -0.679507
-0.88384  -0.040526  -0.466031
-0.321711  0.296505  -0.899214
-0.233573  0.392727  -0.889499
-0.08239  0.416185  -0.90554
-0.109283  0.467885  -0.877007
0.046869  0.448293  -0.892657
-0.126825  0.364978  -0.922338
0.39067  0.330313  -0.859227
0.309294  0.455283  -0.834898
0.226128  0.508045  -0.831118
0.438312  0.141666  -0.887589
0.450838  -0.001573  -0.892604
0.538628  0.365601  -0.759089
0.486516  0.423291  -0.764282
0.743044  0.668792  -0.024551
0.749578  0.564294  -0.345985
0.71807  0.384188  -0.580323
0.784307  0.491103  -0.379052
0.826063  0.405747  -0.391139
0.879432  0.415041  -0.23311
0.808771  0.574622  -0.125297
0.86215  0.500146  0.080945
0.648211  -0.033752  -0.760713
0.716251  -0.067731  -0.694548
0.744551  0.246122  -0.620539
0.597687  -0.076544  -0.798067
0.602268  0.172025  -0.779539
0.515368  -0.185824  -0.83658
0.572671  -0.238143  -0.784434
0.719299  0.067003  -0.691461
0.692375  0.183217  -0.697888
0.69686  0.234792  -0.677687
0.77217  0.292227  -0.564232
-0.717567  -0.572643  -0.396456
-0.556848  -0.819167  -0.137425
-0.655945  -0.754123  -0.032178
-0.636745  -0.720611  0.274366
-0.4019  -0.880505  0.251372
-0.791772  -0.533249  0.297897
-0.400076  -0.910509  -0.104464
-0.273607  -0.96184  0.001473
-0.032915  -0.988345  0.148626
0.250331  -0.925422  0.284481
-0.284697  -0.951266  0.118491
-0.742222  -0.486749  0.460632
-0.664446  -0.593556  0.454096
-0.705119  -0.41657  0.573826
-0.739475  -0.255352  0.622873
-0.761498  -0.403249  0.507456
-0.76653  -0.123838  0.630155
-0.752878  0.165994  0.636884
-0.681381  0.336701  0.649887
-0.672805  -0.367681  0.641984
-0.560369  -0.602095  0.568743
-0.425228  -0.719906  0.548559
-0.412844  -0.718399  0.559878
-0.594723  -0.695316  0.403535
-0.454658  -0.764018  0.45778
-0.335453  -0.829671  0.446225
-0.310658  -0.793964  0.522602
-0.687873  0.331662  0.645625
-0.567619  0.448699  0.690273
-0.830047  0.029579  0.556908
-0.848057  -0.348404  0.399267
-0.821507  -0.568333  -0.046077
-0.915752  -0.376482  -0.140214
-0.813963  -0.548507  0.191322
-0.882611  -0.468817  0.034747
-0.977018  -0.168543  -0.130494
-0.993429  -0.094942  -0.063918
-0.993806  -0.104245  -0.038501
-0.989018  -0.141544  0.042539
-0.986381  -0.163743  0.015506
-0.971089  -0.228858  -0.067906
-0.9817  -0.163337  -0.097909
-0.973199  -0.225545  -0.044862
-0.982435  -0.148155  -0.113452
-0.968838  -0.239138  0.06455
-0.975383  -0.133578  -0.175459
-0.974791  -0.205269  -0.087448
-0.940859  -0.111322  -0.319987
-0.969812  -0.126037  -0.208758
-0.980568  -0.114702  -0.159151
0.777512  -0.612554  0.142315
0.774824  -0.616729  0.138903
0.754061  -0.656778  -0.005948
0.683197  -0.73004  0.016857
0.320364  -0.934327  -0.156205
0.794512  -0.568578  0.213237
0.060788  -0.995255  -0.075972
-0.042213  -0.99879  0.02522
0.780033  -0.618534  0.094683
0.831656  -0.550512  -0.072698
0.994934  -0.087459  -0.049571
0.942308  -0.308099  -0.130886
0.890378  -0.44626  -0.08988
0.998341  0.053786  0.020563
0.962166  -0.061756  0.265373
0.932115  -0.015821  0.361817
0.973408  0.151821  0.171542
0.909634  0.28068  -0.306243
0.987418  0.05372  0.148725
0.996603  0.013537  0.081231
0.950388  0.214709  -0.225082
0.250805  -0.948105  0.195433
0.18298  -0.935401  0.302561
0.044478  -0.944508  0.325462
0.110143  -0.992028  0.061221
0.044558  -0.997497  -0.0549
-0.083138  -0.993857  -0.073049
-0.703799  0.157427  -0.692736
-0.529748  0.280136  -0.800557
-0.812301  0.033377  -0.582282
-0.839576  0.089368  -0.535841
-0.914197  0.013336  -0.40505
-0.956013  -0.139717  -0.257912
-0.408814  0.354894  -0.840786
-0.224523  0.490331  -0.842119
-0.383412  0.405265  -0.829913
0.043988  0.464065  -0.884708
0.025215  0.503961  -0.863359
-0.061481  0.573477  -0.816911
0.212734  0.556216  -0.803348
0.062441  0.499942  -0.863805
0.46139  0.566089  -0.683127
0.53737  0.270129  -0.798914
0.592466  0.463053  -0.659216
0.655044  0.361565  -0.663466
0.816455  0.558253  0.147495
0.865727  0.448651  0.221878
0.807823  0.583141  0.085847
0.818574  0.567178  -0.090803
0.783537  0.339957  -0.520095
0.836421  0.385431  -0.389671
0.915261  0.308571  -0.258999
0.997953  0.039972  0.049922
0.947974  0.314787  -0.047487
0.979175  0.133968  0.152544
0.918007  0.307139  0.250856
0.492769  -0.174171  -0.852551
0.414886  -0.243376  -0.87672
0.612261  0.008861  -0.790606
0.721281  0.156487  -0.674733
0.484588  -0.241068  -0.840869
0.59133  -0.145797  -0.793141
0.724283  0.057821  -0.687074
0.804128  0.246768  -0.540818
0.817755  0.202914  -0.538613
0.770995  0.378857  -0.511893
0.833134  0.300321  -0.464431
0.827578  0.356948  -0.433246
-0.338811  -0.91994  0.197276
-0.272993  -0.870537  0.409439
-0.22311  -0.893521  0.389668
-0.155571  -0.927469  0.339998
-0.304615  -0.878405  0.368258
-0.599898  -0.657133  0.456397
-0.58848  -0.714784  0.377856
-0.573665  -0.749735  0.329858
-0.477572  -0.798336  0.366858
-0.553197  -0.671848  0.492537
-0.683757  -0.366906  0.630758
-0.545004  -0.579616  0.605819
-0.820061  0.102079  0.563099
-0.711226  -0.382016  0.590103
-0.819323  -0.196878  0.538469
-0.694675  0.339151  0.634352
-0.39102  -0.808853  0.439159