<?xml version="1.0"?>
<VTKFile type="PolyData" version="0.1" byte_order="LittleEndian" compressor="vtkZLibDataCompressor">
	<PolyData>
		<Piece NumberOfPoints="1562" NumberOfVerts="0" NumberOfLines="0" NumberOfStrips="0" NumberOfPolys="3170">
		<PointData Normals="Normals">
		<DataArray type="Float32" Name="Normals" NumberOfComponents="3" format="ascii">
-0.419624  -0.860102  -0.29007
-0.003881  -0.94  -0.341152
-0.274497  -0.858875  -0.432418
-0.367027  -0.816118  -0.446366
-0.597809  -0.750024  -0.282998
-0.774257  -0.603604  -0.190234
-0.468163  -0.876019  -0.115821
-0.13992  -0.981253  -0.132532
0.009577  -0.884202  -0.467007
0.182316  -0.952136  -0.245354
0.487397  -0.752363  -0.443163
0.454953  -0.832407  -0.316413
-0.125048  -0.823095  -0.553966
-0.548794  -0.770498  -0.324281
-0.24513  -0.807029  -0.53723
-0.446273  -0.769841  -0.456274
-0.799443  -0.599972  -0.030402
-0.708164  -0.688484  -0.156502
-0.71922  -0.68899  -0.089526
-0.885083  -0.460416  0.068154
-0.892661  -0.422797  -0.156199
-0.945463  -0.307639  -0.107043
-0.126719  -0.991646  0.024096
-0.455959  -0.888728  -0.047583
0.273037  -0.961629  -0.026856
0.26597  -0.831225  -0.488185
0.276253  -0.961019  0.011296
0.120411  -0.978488  -0.16752
-0.084767  -0.863138  -0.497802
-0.106417  -0.837891  -0.535363
-0.653888  -0.704357  -0.276245
-0.269749  -0.83791  -0.474491
-0.552465  -0.745674  -0.372495
-0.666117  -0.674191  -0.31899
-0.756179  -0.640331  -0.134796
-0.84  -0.5319  0.107159
-0.821712  -0.569096  -0.030335
-0.792968  -0.608972  0.018837
-0.906865  -0.421388  0.005389
-0.915463  -0.401759  0.022747
-0.857009  -0.475993  0.197398
-0.831467  -0.539665  0.131998
-0.870278  -0.487269  0.072005
-0.414845  -0.904555  0.098408
0.229327  -0.949859  0.212547
-0.076031  -0.964637  0.252379
0.441522  -0.859449  0.257694
0.108755  -0.978353  -0.176064
-0.11062  -0.956598  -0.269598
0.091578  -0.9921  0.085738
0.431827  -0.858511  0.276557
-0.193441  -0.977093  -0.088707
-0.199314  -0.979918  0.005839
-0.160448  -0.873353  -0.459904
-0.169146  -0.879643  -0.444542
-0.126815  -0.870938  -0.474747
-0.145781  -0.847683  -0.51008
-0.17765  -0.870264  -0.459436
-0.154207  -0.876715  -0.455622
-0.201822  -0.869344  -0.45112
-0.381591  -0.829949  -0.406906
-0.680956  -0.634826  -0.365097
-0.583819  -0.761872  -0.280549
-0.737642  -0.650854  -0.179648
-0.741165  -0.651005  -0.163912
-0.733683  -0.614602  -0.289783
-0.753418  -0.625229  -0.203593
-0.726279  -0.620274  -0.296274
-0.862424  -0.479314  0.162737
-0.788243  -0.566325  -0.240725
-0.867003  -0.495616  -0.051678
-0.878419  -0.448838  -0.164088
-0.62908  -0.748416  0.210077
-0.836246  -0.507698  0.207207
-0.885327  -0.456615  0.087745
-0.860796  -0.503001  -0.077589
-0.876885  -0.47673  -0.061647
-0.919301  -0.372406  0.127275
-0.875367  -0.468231  0.120383
-0.889762  -0.442596  0.111501
-0.177061  -0.913487  0.366321
0.246575  -0.839738  0.483778
0.515124  -0.572432  0.63794
0.746803  -0.620867  0.238346
-0.30859  -0.941382  -0.136278
-0.17066  -0.882274  -0.438712
0.027751  -0.904753  0.425032
-0.162387  -0.959132  0.231727
0.111179  -0.745421  0.657256
0.588052  -0.486219  0.646364
-0.107033  -0.987461  -0.116037
-0.243988  -0.959199  0.142851
-0.100978  -0.865478  -0.490663
-0.101765  -0.881363  -0.461349
-0.156442  -0.878901  -0.45062
-0.170931  -0.88594  -0.431153
-0.043526  -0.83153  -0.553773
0.018686  -0.825093  -0.564687
-0.239533  -0.861059  -0.448555
-0.375439  -0.855228  -0.357254
-0.478573  -0.812749  -0.332275
-0.604239  -0.742312  -0.289599
-0.494933  -0.800794  -0.3373
-0.801739  -0.586975  -0.112582
-0.878118  -0.474485  -0.061429
-0.786767  -0.579341  -0.212981
-0.808075  -0.578763  -0.109763
-0.84375  -0.53311  -0.062284
-0.648833  -0.706931  -0.28154
-0.808201  -0.534022  -0.248257
-0.924593  -0.376229  -0.059839
-0.972387  -0.2313  -0.031047
-0.984099  -0.177264  0.011242
-0.546912  -0.737716  0.395805
-0.566133  -0.51251  0.645622
-0.696971  -0.397788  0.596654
-0.860582  -0.425726  0.279565
-0.885071  -0.464959  -0.021525
-0.929807  -0.353697  0.101769
-0.981756  -0.159417  0.103641
-0.969323  -0.23055  0.085198
-0.937557  -0.319294  0.13798
-0.952405  0.080254  0.294081
-0.173656  -0.800083  0.574205
0.176762  -0.664449  0.726129
0.588973  -0.342906  0.731797
0.579222  -0.214354  0.786482
0.409638  -0.470683  0.781443
0.021474  -0.952654  -0.303297
0.188934  -0.858328  -0.47705
-0.078565  -0.756859  0.648838
-0.074862  -0.911397  0.404662
0.012672  -0.98539  0.169838
0.138696  -0.550003  0.823566
-0.0677  -0.44161  0.894649
0.544511  -0.198144  0.815013
0.265554  -0.262141  0.927773
0.396704  -0.861807  -0.316094
0.38957  -0.850382  -0.353674
0.274172  -0.950807  -0.144208
-0.030223  -0.855124  -0.517542
-0.039178  -0.86611  -0.498316
-0.294631  -0.877392  -0.378651
-0.016341  -0.876211  -0.481651
-0.1028  -0.880656  -0.462468
-0.156118  -0.882282  -0.444078
0.215416  -0.773355  -0.596253
0.137985  -0.805793  -0.575898
0.332074  -0.697672  -0.634807
-0.313175  -0.857945  -0.407248
-0.479326  -0.795925  -0.369799
-0.925718  -0.371963  0.068485
-0.981809  0.004896  0.189809
-0.956107  -0.261589  0.132024
-0.914887  -0.387913  0.11183
-0.760891  -0.621656  -0.18598
-0.855051  -0.512699  -0.077636
-0.84459  -0.531252  -0.066626
-0.696401  -0.672671  -0.250081
-0.600687  -0.732162  -0.321113
-0.378858  -0.820477  -0.428116
-0.98953  0.080857  0.11955
-0.955789  0.259489  0.138322
-0.108933  -0.349411  0.930616
-0.101794  -0.443041  0.890703
-0.192684  -0.550882  0.812036
-0.523556  -0.141866  0.840097
-0.629332  -0.352876  0.692401
-0.226141  -0.210528  0.951072
-0.869736  -0.279077  0.407031
-0.595406  -0.082653  0.799162
-0.918391  -0.104465  0.381634
-0.932897  -0.038487  0.358082
-0.970694  0.178346  0.161078
-0.961082  0.263148  0.084106
-0.894757  0.443551  0.051686
-0.81119  0.282383  0.512084
-0.770995  0.628765  0.101101
-0.730204  0.582359  0.357295
-0.686108  0.52926  0.499139
0.344268  -0.222897  0.912029
0.530112  0.13431  0.837223
0.482287  0.07215  0.873037
0.43065  -0.741752  -0.514145
-0.028802  -0.81159  0.583517
0.122847  -0.55117  0.8253
0.168752  -0.968808  0.181475
0.226459  -0.871065  0.435846
0.378044  -0.918211  -0.118199
0.385035  -0.919044  -0.084298
-0.106408  -0.263697  0.958719
-0.128842  -0.114965  0.984979
0.072347  -0.129968  0.988875
-0.034883  0.042384  0.998492
0.475091  -0.877037  -0.071378
0.632265  -0.606702  -0.481824
0.66308  -0.677173  -0.319002
0.407517  -0.842679  -0.351884
0.127975  -0.825225  -0.550115
-0.156957  -0.879149  -0.449958
0.175399  -0.812353  -0.556163
0.019874  -0.84795  -0.529704
0.461548  -0.701181  -0.543432
0.483157  -0.630734  -0.607235
0.369161  -0.692382  -0.619942
0.594161  -0.543363  -0.593068
-0.257976  -0.863733  -0.432913
0.008946  -0.858234  -0.513181
-0.958815  -0.123563  0.255748
-0.786464  0.538145  0.303108
-0.960455  0.044845  0.274801
-0.892644  0.272839  0.358812
-0.675628  0.548942  0.492127
-0.634851  0.672391  0.380598
-0.877818  -0.478703  0.016681
-0.933868  -0.100345  0.343252
-0.95241  -0.043741  0.301666
-0.888081  0.101934  0.448242
-0.656075  -0.697223  -0.288869
-0.758701  -0.617557  -0.207356
-0.914255  -0.404924  -0.013224
0.0  0.0  -1.0
-0.877572  -0.476275  -0.055032
-0.897824  -0.436803  0.055821
-0.957523  -0.13478  0.254918
-0.521843  -0.752674  -0.40145
-0.209674  -0.853873  -0.47638
-0.214844  -0.852054  -0.477332
-0.320367  -0.824017  -0.467292
-0.430691  -0.791643  -0.433367
-0.775813  0.570822  0.268841
-0.579234  0.787173  0.211768
0.171762  -0.12058  0.977731
0.205076  0.252993  0.945483
-0.025469  0.202242  0.979004
-0.225691  0.152393  0.962206
-0.723475  0.060626  0.687683
-0.292165  0.36298  0.884808
-0.638413  0.304372  0.706955
-0.766954  0.290211  0.572328
-0.552584  0.830185  -0.073785
-0.540235  0.621138  0.567745
-0.440219  0.824626  0.355247
-0.358507  0.933186  0.025242
-0.487236  0.713817  0.503057
0.340861  0.150899  0.927924
0.404562  0.401022  0.821895
0.549836  0.321088  0.771092
0.630961  0.227719  0.741641
0.309432  0.250939  0.917214
0.671218  -0.617435  -0.41017
0.738724  -0.495283  -0.457145
0.551683  -0.465757  0.691893
0.300007  -0.282499  0.911148
0.512377  -0.85851  -0.020737
0.619765  -0.733138  0.28
0.529902  -0.790048  -0.308266
0.594585  -0.740359  -0.313587
-0.17461  0.142164  0.974321
-0.081533  0.135458  0.987423
0.4301  -0.062627  0.900606
0.228956  0.180186  0.956615
-0.035968  0.349812  0.936129
0.837355  -0.297984  -0.458304
0.812306  -0.386235  -0.437013
0.400879  -0.711065  -0.577653
0.287889  -0.770684  -0.568477
0.624737  -0.590876  -0.51046
0.533956  -0.566962  -0.627251
0.616997  -0.520032  -0.590662
0.763602  -0.52509  -0.375755
0.650531  -0.450309  -0.611581
0.82196  -0.421585  -0.382946
0.732653  -0.4622  -0.49959
0.693805  -0.413151  -0.589865
-0.088108  -0.857535  -0.506824
0.301526  -0.762158  -0.572885
0.170384  -0.803349  -0.570613
0.107899  -0.817903  -0.565148
0.290738  -0.784094  -0.548331
-0.8649  0.228055  0.447145
-0.4012  0.824419  0.399216
-0.78632  0.418607  0.454389
-0.637621  0.607166  0.474119
-0.387094  0.721448  0.57417
-0.133479  0.883004  0.449985
-0.795674  0.296551  0.528167
-0.651895  0.523758  0.548371
-0.556589  0.545849  0.626305
-0.664387  -0.683974  -0.30128
-0.533588  -0.755383  -0.380369
-0.640411  -0.702818  -0.309711
-0.729939  -0.642705  -0.232636
-0.820546  -0.554626  -0.138185
-0.594822  -0.728072  -0.340732
-0.955083  -0.175235  0.238975
-0.926815  -0.375303  0.01268
-0.89978  0.089299  0.427109
-0.667528  0.381372  0.639501
-0.079711  -0.857053  -0.509025
-0.132452  -0.859355  -0.493929
-0.202534  -0.835726  -0.510433
-0.374736  -0.798161  -0.471711
-0.452306  0.86993  0.196573
-0.223087  0.973538  0.049557
-0.348544  0.873049  0.341032
0.007497  0.465527  0.885002
0.19  0.563703  0.803828
0.37609  0.516313  0.7694
-0.21205  0.56602  0.796653
0.037211  0.661161  0.74932
-0.482241  0.544939  0.68592
-0.449574  0.654741  0.607617
-0.178381  0.819555  0.544527
-0.296712  0.817223  0.494073
-0.245788  0.915266  0.31918
-0.181543  0.979265  0.089904
0.484963  0.49802  0.718879
0.404817  0.408258  0.818199
0.887273  -0.396792  -0.235166
0.89453  -0.326292  -0.305532
0.849331  -0.494409  0.184925
0.652834  -0.022985  0.757153
0.835791  -0.255823  0.485807
0.788481  -0.536194  -0.301319
0.854855  -0.485616  -0.182757
-0.099105  0.347275  0.932512
0.19273  0.396377  0.89763
0.617585  0.143808  0.773245
-0.201689  0.490149  0.847983
0.283849  0.63332  0.719955
-0.074444  0.560767  0.82462
0.881843  -0.224187  -0.41484
0.894989  -0.223112  -0.386284
0.512503  -0.643007  -0.569108
0.432801  -0.678356  -0.593732
0.771867  -0.298042  -0.561598
0.798795  -0.307167  -0.517277
0.693991  -0.474504  -0.5415
0.929826  -0.268047  -0.25214
0.894841  -0.224203  -0.385996
0.825177  -0.240202  -0.511259
0.346162  -0.722218  -0.59881
0.497838  -0.630103  -0.595925
-0.028096  -0.846142  -0.532217
0.132455  -0.801531  -0.583099
0.322861  -0.719394  -0.615007
-0.206126  0.931454  0.299843
-0.514543  0.664061  0.542465
-0.280595  0.79859  0.532466
-0.044376  0.862781  0.503626
0.133469  0.91087  0.390515
0.023249  0.9298  0.367331
-0.049922  0.924007  0.379102
-0.404804  0.67268  0.619383
-0.408507  0.71928  0.561924
-0.40432  0.738194  0.539996
-0.311795  0.739719  0.596322
-0.373392  -0.814264  -0.444469
-0.670254  -0.677308  -0.303338
-0.493933  -0.764383  -0.414426
-0.587917  -0.713544  -0.381063
-0.777801  -0.60067  -0.184989
-0.858903  -0.502708  -0.097827
-0.440028  -0.784947  -0.436157
-0.950582  -0.05092  0.306268
-0.75456  0.275014  0.595824
-0.918952  -0.394367  0.001753
-0.482972  0.509748  0.711966
-0.474063  0.368845  0.799511
-0.106319  -0.825486  -0.554319
-0.006144  0.9984  -0.056216
0.010635  0.994877  0.100528
0.002195  0.963313  0.268371
0.297102  0.686529  0.663633
0.167133  0.717632  0.67607
0.445514  0.57844  0.683319
0.443462  0.618267  0.648912
-0.119796  0.738874  0.66311
0.076621  0.818915  0.568778
-0.027006  0.80132  0.597626
-0.088435  0.934283  0.345391
-0.098309  0.989061  0.109973
0.94423  -0.256968  -0.205905
0.910751  -0.303426  -0.280115
0.915093  -0.359978  -0.181716
0.962791  -0.267599  -0.037754
0.939087  -0.138732  0.314433
0.893967  -0.284011  -0.346642
-0.080508  0.524136  0.84782
0.124267  0.554926  0.822566
0.382337  0.556601  0.737573
0.829709  0.040345  0.556736
0.915456  0.133872  0.379497
-0.197146  0.599334  0.775843
0.404026  0.738993  0.539122
0.309888  0.710009  0.632342
-0.033734  0.764692  0.643513
-0.045876  0.664557  0.745828
0.895327  -0.278444  -0.347646
0.893691  -0.306294  -0.327873
0.783947  -0.369836  -0.498647
0.54473  -0.610563  -0.574875
0.557799  -0.591859  -0.581861
0.861746  -0.106811  -0.495968
0.835445  -0.274281  -0.476236
0.922489  -0.088273  -0.375795
0.844437  -0.277773  -0.458006
0.690949  -0.477258  -0.542968
0.909931  0.066957  -0.409319
0.896218  -0.08553  -0.435292
0.899773  0.078694  -0.429203
0.627166  -0.523806  -0.576447
0.474574  -0.632637  -0.612004
0.05946  -0.799733  -0.597405
0.271658  -0.735827  -0.620291
-0.286746  0.771547  0.567883
-0.150633  0.802873  0.576806
0.034861  0.882142  0.469692
0.000107  0.83292  0.553394
0.056977  0.885903  0.460358
0.144964  0.960676  0.236828
0.278403  0.938899  0.202385
0.087656  0.829916  0.550959
0.195537  0.881425  0.429948
-0.344691  0.756029  0.556424
-0.418603  0.605516  0.676847
-0.412482  0.698781  0.584435
-0.236587  -0.83399  -0.498486
-0.689986  -0.666052  -0.283361
-0.250485  -0.81425  -0.523694
-0.346555  -0.80008  -0.489665
-0.444144  -0.757932  -0.477781
-0.581487  -0.719378  -0.379958
-0.785118  -0.595132  -0.171485
-0.940918  -0.013673  0.338359
-0.702976  0.375355  0.604097
-0.229033  0.627067  0.744534
-0.95678  -0.272434  0.101748
-0.874158  -0.479489  -0.077057
-0.026532  0.707937  0.705777
0.14502  -0.769019  -0.622558
-0.039021  -0.82655  -0.561509
0.075161  0.996981  -0.019485
0.082774  0.993804  -0.074175
0.108513  0.990273  0.087083
0.289014  0.764934  0.575628
0.20992  0.880036  0.425993
0.084286  0.954495  0.286069
0.90527  -0.321783  -0.277383
0.970232  -0.146409  -0.192911
0.915089  -0.148081  -0.375078
0.941995  -0.296322  -0.1576
0.13431  0.728604  0.671637
-0.015002  0.700017  0.713969
0.230443  0.663486  0.711816
0.557002  0.411219  0.721559
0.745813  0.483812  0.457917
0.970879  0.236477  0.038382
0.998075  -0.055  -0.028651
-0.14119  0.764735  0.628685
0.309013  0.856913  0.412566
0.300758  0.784487  0.542333
0.247608  0.883926  0.396693
-0.185532  0.812058  0.553299
-0.095596  0.950753  0.294838
-0.211345  0.810405  0.546422
0.926504  -0.067997  -0.370089
0.899433  -0.152644  -0.409537
0.82008  -0.332699  -0.465597
0.924036  0.164222  -0.345238
0.890115  -0.177466  -0.419762
0.96876  0.199854  -0.14684
0.944558  -0.061641  -0.322507
0.850915  -0.294776  -0.4348
0.918288  -0.161045  -0.361679
0.775185  -0.399828  -0.489107
0.774546  -0.375465  -0.509023
0.774351  0.573787  -0.266736
0.94818  0.19795  -0.248538
0.701066  0.66861  -0.247927
0.785745  0.578114  -0.219977
0.873317  0.437462  -0.214345
0.660398  -0.504859  -0.55587
0.332774  -0.690426  -0.642319
0.460409  -0.626984  -0.628423
0.567835  -0.572995  -0.590966
-0.05704  0.846925  0.528644
-0.279149  0.754977  0.593368
0.240379  0.922758  0.301223
0.077376  0.7916  0.606121
-0.044223  0.789237  0.612494
0.199568  0.979831  0.01019
0.113013  0.992742  -0.041125
0.13097  0.991121  0.022934
0.127712  0.958216  0.255952
0.085615  0.847711  0.523504
0.037743  0.822647  0.567299
0.121595  0.834697  0.537118
0.117486  0.802468  0.585015
0.150552  0.805729  0.57283
0.153283  0.82649  0.541681
0.009082  0.886528  0.462586
-0.515489  0.566473  0.642946
-0.391917  0.547958  0.739015
-0.2534  0.752892  0.607406
-0.073184  -0.830481  -0.552218
-0.7001  -0.657194  -0.279206
-0.161488  -0.803329  -0.573223
-3.3e-05  -0.795465  -0.606
-0.326484  -0.791021  -0.517391
-0.192322  -0.814926  -0.546725
-0.345132  -0.799829  -0.491078
-0.489823  -0.774701  -0.39989
-0.541707  -0.738465  -0.401526
-0.595961  -0.720314  -0.354934
-0.757197  -0.61639  -0.216141
-0.871487  0.201795  0.446977
-0.720406  0.368653  0.587461
-0.93013  0.0568  0.36281
-0.684077  0.450001  0.574053
-0.275003  0.65879  0.700263
0.077896  0.719544  0.690064
-0.138756  0.695941  0.704566
0.065715  0.764808  0.640898
-0.954851  -0.281164  0.095954
-0.945731  -0.016445  0.324535
-0.882724  -0.464864  -0.068559
-0.944705  -0.319192  0.075154
-0.779402  -0.594854  -0.196676
0.235548  -0.724908  -0.647322
0.055079  -0.794447  -0.604831
0.188559  0.973405  0.130107
0.139041  0.986074  -0.09124
0.919549  0.390581  -0.043324
0.924641  0.278008  -0.260291
0.061477  0.75429  0.653657
0.366389  0.788062  0.494689
0.4288  0.650479  0.626903
0.643872  0.651467  0.401272
0.914021  0.393027  0.100474
0.120694  0.845168  0.520696
-0.034821  0.881437  0.471015
0.297899  0.930211  0.214392
0.17441  0.98389  0.039258
0.226891  0.973869  -0.009963
-0.178161  0.881151  0.437985
0.105777  0.985087  -0.135702
-0.269851  0.96123  0.056716
-0.28607  0.939123  0.190295
0.851708  0.520732  -0.058584
0.972805  0.179875  -0.14593
0.830693  0.552246  0.07053
0.946748  -0.105374  -0.304245
0.87085  -0.226493  -0.436259
0.968262  -0.038509  -0.246955
0.771927  -0.363819  -0.52131
0.855817  -0.244982  -0.455588
0.414904  0.852469  -0.318042
0.701966  0.632998  -0.326432
0.455396  0.890165  -0.014897
0.262761  0.949558  -0.171164
0.340046  0.926702  0.159977
0.747907  0.663726  0.010105
0.748087  -0.387341  -0.538826
0.656097  -0.488928  -0.57488
0.426564  -0.636242  -0.642837
0.610684  -0.519846  -0.597348
0.605806  -0.528031  -0.595132
-0.139228  0.77283  0.619152
0.134137  0.793383  0.593759
0.053356  0.79235  0.607729
-0.078538  0.788642  0.609816
0.025459  0.797404  0.602909
-0.113175  0.988179  0.103414
-0.020431  0.881857  0.471074
0.240019  0.842471  0.482322
0.168295  0.893107  0.417177
0.162004  0.791658  0.589094
0.159064  0.799268  0.579542
0.244975  0.796234  0.553171
-0.13801  0.926114  0.351091
-0.168929  0.937599  0.303926
-0.177532  0.757639  0.628065
-0.100191  0.771265  0.62858
-0.690663  -0.670966  -0.269795
0.130625  -0.772972  -0.620847
0.041217  -0.802618  -0.595068
-0.095533  -0.803572  -0.587491
-0.446761  -0.775154  -0.446701
-0.186229  -0.802536  -0.566793
-0.084135  -0.811412  -0.578388
-0.517318  -0.753931  -0.404932
-0.627946  -0.707095  -0.325116
-0.844955  0.206929  0.493184
-0.346321  0.68404  0.64199
-0.568493  0.46269  0.680245
0.026512  0.7766  0.629436
-0.013533  0.789672  0.61338
0.067871  0.781361  0.620378
0.189861  0.79614  0.574555
-0.143251  0.716821  0.682384
-0.810959  0.245385  0.531161
-0.89841  0.127656  0.420195
-0.963531  -0.118325  0.240013
-0.738206  0.351008  0.576059
-0.958285  -0.253284  0.132428
-0.894798  -0.443802  -0.04875
-0.965764  -0.133796  0.222257
-0.694587  -0.665981  -0.272063
-0.785206  -0.589562  -0.189389
0.604169  0.78323  0.146733
0.87139  0.490589  -0.001275
0.578368  0.764154  0.285586
0.564501  0.750908  0.342747
0.521909  0.806733  0.277115
0.755098  0.631496  -0.176183
0.246507  0.888689  0.386607
0.087865  0.925682  0.367956
-0.113564  0.978912  0.16981
-0.273868  0.958444  0.079888
-0.241837  0.969917  -0.027869
0.905542  0.403496  -0.131093
0.924111  0.380806  0.031715
0.775189  0.613079  0.152366
0.637933  0.736825  0.223899
0.944642  -0.029961  -0.326732
0.963485  -0.010801  -0.267542
0.915446  0.352567  0.194052
0.973497  0.228189  0.015287
0.868407  -0.203255  -0.452279
0.390219  0.906965  -0.158569
0.022007  0.977662  -0.20903
-0.04299  0.998903  0.018559
0.393984  0.857607  0.330586
0.112938  0.948712  0.295279
0.431558  0.845317  0.314956
0.756198  -0.378444  -0.533802
0.837897  -0.243826  -0.488342
0.298698  -0.721904  -0.624207
0.497906  -0.630669  -0.59527
0.657267  -0.494869  -0.568423
0.101158  0.792396  0.601561
0.182201  0.786027  0.590732
0.105632  0.797854  0.593524
0.007694  0.930866  0.365281
0.387361  0.809092  0.441952
0.357899  0.845456  0.396375
0.174701  0.790077  0.587587
0.318399  0.788346  0.526434
0.283837  0.801997  0.525583
-0.111791  0.962631  0.246667
-0.103703  0.793741  0.59935
0.074806  0.786434  0.613128
-0.010463  0.803257  0.59554
0.124097  -0.77013  -0.6257
-0.275668  -0.800951  -0.531493
-0.42398  -0.780799  -0.458905
-0.020766  -0.795157  -0.606048
0.029887  -0.78961  -0.612881
-0.532606  -0.74882  -0.394461
-0.405392  -0.782921  -0.471903
-0.61683  -0.709904  -0.339937
-0.567887  0.533986  0.626389
-0.093625  0.791529  0.603918
-0.080573  0.75515  0.650581
-0.05707  0.745078  0.664532
0.139062  0.761059  0.633602
-0.047364  0.731846  0.679822
-0.120524  0.748157  0.652484
-0.910154  0.095464  0.403121
-0.687459  0.424454  0.58927
-0.36012  0.623533  0.693917
-0.971646  -0.039229  0.233162
-0.959151  -0.270221  0.083723
-0.937233  0.072843  0.34101
-0.971553  -0.195826  0.133176
-0.910441  -0.412453  -0.031308
-0.623674  -0.703051  -0.341688
-0.691806  -0.657758  -0.297924
-0.839071  -0.526366  -0.13747
0.246524  0.932055  0.265517
0.014595  0.996355  0.08405
0.639241  0.71935  0.271857
0.698052  0.675534  0.237441
0.64325  0.646038  0.410932
0.430134  0.809034  0.40056
0.971932  0.070977  -0.224298
0.878827  0.448381  0.163149
0.93491  -0.007937  -0.354795
0.955347  0.283031  -0.08489
0.790792  0.51667  0.328178
0.857759  -0.229913  -0.459772
0.824651  -0.303458  -0.477351
0.886132  -0.135217  -0.443267
0.425589  -0.652669  -0.626815
0.354872  -0.675559  -0.646286
0.512093  -0.599536  -0.615075
0.744189  -0.416338  -0.522347
0.635912  -0.520319  -0.569986
0.166787  0.805214  0.569045
0.165979  0.788148  0.592683
0.192039  0.816106  0.545062
0.304404  0.802953  0.512449
0.380533  0.8074  0.450888
0.268303  0.804528  0.529857
0.453531  0.793607  0.405583
0.407442  0.792337  0.454085
0.362245  0.797106  0.483116
-0.102858  0.786568  0.608876
0.06632  0.809983  0.582692
0.299943  -0.702027  -0.645904
-0.157021  -0.809432  -0.565831
0.167045  -0.752506  -0.637048
-0.45059  -0.762917  -0.463602
-0.505468  -0.740972  -0.442111
-0.360433  -0.779306  -0.512612
-0.044223  0.76593  0.641401
0.007023  0.782092  0.623124
-0.058875  0.753551  0.654748
0.091843  0.754882  0.649398
-0.075608  0.743623  0.66431
0.081887  0.822563  0.562747
-0.009901  0.707108  0.707036
-0.048017  0.711619  0.700923
-0.041232  0.742874  0.66816
0.024547  0.783236  0.62124
-0.022483  0.710585  0.703252
-0.527683  0.607076  0.594146
-0.177664  0.820978  0.542614
-0.910564  0.179534  0.372344
-0.781435  0.372194  0.50083
-0.96502  -0.228115  0.129232
-0.927389  0.074989  0.366505
-0.936547  -0.349253  0.03004
-0.580799  -0.715985  -0.387348
-0.712135  -0.640808  -0.286756
-0.92642  -0.371666  0.060088
-0.835786  -0.530111  -0.142982
0.473854  0.758719  0.446998
0.451456  0.716549  0.531737
0.528965  0.663316  0.529346
0.680074  0.609751  0.407068
0.832847  0.519783  0.190239
0.954463  0.072259  -0.289447
0.885593  0.461053  -0.056168
0.893961  -0.169472  -0.414864
0.834379  -0.284109  -0.472327
0.426692  -0.644664  -0.634305
0.557642  -0.563927  -0.609115
0.73786  -0.427339  -0.52244
0.691105  -0.459982  -0.557485
0.222447  0.797168  0.561285
0.412942  0.770215  0.486053
0.353531  0.788267  0.503638
0.311397  0.781705  0.540342
0.320881  0.761796  0.562762
0.242965  0.783987  0.571256
0.151666  0.792139  0.591197
-0.296507  -0.785784  -0.542796
0.018734  -0.776045  -0.630399
0.410943  -0.66452  -0.624131
0.230009  -0.728058  -0.645777
-0.462061  -0.741081  -0.487132
0.056984  0.76909  0.636595
-0.031219  0.76742  0.640385
0.201511  0.7783  0.594678
-0.16311  0.695692  0.699577
-0.274982  0.658351  0.700684
-0.060657  0.638875  0.766916
-0.026187  0.711466  0.702233
-0.032721  0.682906  0.729773
-0.030451  0.708025  0.70553
0.039473  0.665325  0.74551
-0.023632  0.737902  0.674493
0.075029  0.846852  0.526509
-0.033665  0.701574  0.711801
0.259328  0.811354  0.523884
0.189881  0.709642  0.678493
-0.020285  0.690313  0.723226
-0.430516  0.627429  0.648836
-0.639463  0.470261  0.608229
-0.950284  -0.137479  0.279392
-0.793817  0.265138  0.547318
-0.687496  -0.665963  -0.289556
-0.603591  -0.71153  -0.359726
-0.475009  -0.771487  -0.42329
-0.940663  -0.196715  0.276509
-0.917712  -0.388458  0.083098
-0.817015  -0.567695  -0.101039
0.408136  0.726693  0.552579
0.390074  0.699626  0.598637
0.456138  0.703488  0.545017
0.710709  0.615449  0.340756
0.40755  0.867142  0.286302
0.535954  0.741751  0.403186
0.937025  -0.077886  -0.340468
0.95045  0.303287  -0.068283
0.831981  0.515312  0.205576
0.846177  -0.267201  -0.461073
0.566448  -0.563059  -0.601749
0.771141  -0.365865  -0.521043
0.721767  -0.414414  -0.554359
0.284224  0.778345  0.559818
0.263511  0.776365  0.572554
0.315681  0.777564  0.543819
0.241177  0.735933  0.632642
0.341852  0.771876  0.536045
0.315024  0.765204  0.561447
-0.040854  -0.787258  -0.615269
-0.263203  -0.804639  -0.532241
0.209549  -0.735329  -0.644501
0.409318  -0.652769  -0.637457
0.511355  -0.601243  -0.614022
0.383621  -0.653373  -0.65264
0.317556  0.757111  0.570913
0.367154  0.745697  0.555998
-0.276304  0.609262  0.743274
-0.192549  0.612656  0.766536
-0.110176  0.585557  0.803109
0.04704  0.645056  0.762686
0.010201  0.67344  0.739172
-0.043125  0.647429  0.760904
-0.040682  0.656797  0.752969
0.102911  0.661744  0.742633
0.338975  0.72278  0.602233
0.301606  0.723117  0.621398
0.39698  0.706158  0.5863
0.124606  0.696635  0.706522
0.323109  0.67161  0.666739
0.486608  0.620349  0.615126
0.02743  0.700988  0.712645
-0.504481  0.504106  0.700982
-0.894598  -0.035107  0.445491
-0.797642  0.147819  0.584736
-0.445264  0.487536  0.751031
-0.639224  -0.694491  -0.330265
-0.724744  -0.656717  -0.208493
-0.576659  -0.731716  -0.363395
-0.6325  -0.710276  -0.308951
-0.399432  -0.79666  -0.453637
-0.278077  -0.798492  -0.533932
-0.25707  -0.813153  -0.522205
-0.457347  -0.77688  -0.432772
-0.907903  -0.066299  0.413904
-0.942503  -0.177888  0.282922
-0.913602  -0.382989  0.13657
-0.831346  -0.554731  -0.033721
-0.931255  -0.249786  0.265274
0.298531  0.746969  0.594068
0.365952  0.787449  0.495988
0.940676  0.01332  -0.339046
0.940846  0.20691  -0.268324
0.77802  0.579607  0.242365
0.910237  0.401475  0.101427
0.970595  0.168424  -0.171985
0.517996  0.756728  0.398802
0.496989  0.728458  0.471541
0.330903  0.766158  0.550913
0.524124  0.69127  0.497434
0.836339  -0.270349  -0.476915
0.613817  -0.520415  -0.59363
0.792866  -0.334406  -0.509447
0.850322  -0.230485  -0.473106
0.150366  0.802817  0.576953
0.222607  0.794136  0.565504
0.329439  0.766345  0.55153
-0.034523  -0.803322  -0.594544
0.395399  -0.658647  -0.64019
0.417085  -0.666262  -0.618171
0.205847  -0.762205  -0.613735
0.501391  -0.602309  -0.621153
0.435706  -0.627961  -0.644845
0.281692  0.758101  0.58816
0.209224  0.807061  0.552157
-0.465752  0.37127  0.803264
-0.201231  0.536262  0.819713
0.063233  0.638532  0.766993
-0.106961  0.594998  0.796578
0.049131  0.663194  0.746833
0.031376  0.627716  0.77781
0.023332  0.617544  0.78619
0.148189  0.656675  0.739471
-0.079898  0.62978  0.772653
-0.089844  0.626858  0.773936
0.042008  0.617991  0.785062
-0.074384  0.597784  0.798199
0.088136  0.660661  0.745493
0.123438  0.654748  0.7457
0.349623  0.727925  0.589821
0.409563  0.731129  0.545627
0.466377  0.727035  0.503897
0.552255  0.635982  0.539018
0.694081  0.621974  0.362492
0.308802  0.683047  0.661883
0.88002  0.414701  0.231489
0.719202  0.587617  0.37075
0.740444  0.504527  0.444066
0.252756  0.627336  0.73659
0.425353  0.610491  0.668113
-0.786687  0.131054  0.603281
-0.677969  -0.703735  -0.212402
-0.519131  -0.769796  -0.371372
-0.075516  -0.809594  -0.582113
-0.344627  -0.798257  -0.493982
-0.147808  -0.814931  -0.560393
-0.903748  -0.178929  0.388876
-0.84476  -0.028748  0.534373
-0.902487  -0.388952  0.185025
-0.914111  -0.269131  0.303265
-0.791849  -0.607345  -0.064092
-0.860029  -0.489889  0.142683
0.929197  -0.089199  -0.35866
0.951428  0.056564  -0.30263
0.959643  0.268997  -0.082012
0.400968  0.738409  0.542196
0.764214  0.591254  0.257674
0.0296  0.858579  0.511826
0.203182  0.803926  0.558945
0.162302  0.795034  0.584447
0.687144  -0.453073  -0.567942
0.696272  -0.439634  -0.567386
0.699446  -0.458189  -0.548486
0.613677  -0.529385  -0.585792
0.554198  -0.554462  -0.620836
0.804257  -0.3497  -0.4805
0.947492  -0.051442  -0.315614
0.924174  -0.150501  -0.351072
0.082724  -0.801516  -0.592223
0.494864  -0.599965  -0.628611
0.540233  -0.582763  -0.607072
0.537287  -0.612887  -0.57939
0.355363  -0.7058  -0.612832
0.515769  -0.628618  -0.582084
0.179234  -0.765733  -0.61768
-0.435266  0.442681  0.78395
-0.195542  0.464775  0.863567
-0.571163  0.286253  0.769307
-0.085618  0.610198  0.787609
0.140334  0.624611  0.768223
0.137602  0.606851  0.782814
0.090273  0.569752  0.816843
0.140331  0.609476  0.780286
-0.003641  0.57189  0.820322
0.081595  0.638471  0.765309
0.115714  0.618586  0.777149
0.019688  0.573691  0.818836
-0.105086  0.520298  0.847494
-0.137688  0.556073  0.81965
0.137201  0.639649  0.756323
0.942188  0.335025  0.006361
0.876483  0.465578  0.122535
0.916965  0.388739  0.089763
0.983323  0.10649  -0.147431
0.979283  0.200208  -0.030365
0.917609  0.362981  0.161986
0.903171  0.346313  0.253673
0.622499  0.499926  0.602138
0.207273  0.575127  0.791371
-0.54876  -0.770276  -0.324865
-0.613694  -0.74392  -0.264503
-0.745156  -0.659602  -0.098325
-0.688701  -0.703535  -0.175297
-0.297727  -0.815512  -0.496284
-0.480754  -0.784675  -0.391357
-0.378639  -0.812184  -0.443835
0.037465  -0.797762  -0.601808
-0.116871  -0.821145  -0.558625
-0.855833  -0.076129  0.51162
-0.854867  -0.139536  0.499732
-0.708659  0.113342  0.696388
-0.734028  0.039539  0.677967
-0.889105  -0.350072  0.294859
-0.886182  -0.249513  0.390417
-0.886645  -0.241192  0.394571
-0.811433  -0.584446  -0.000224
-0.850018  -0.509011  0.135561
-0.868474  -0.442157  0.224167
-0.80987  -0.584197  0.053157
0.973031  0.179435  -0.144962
0.827952  -0.367987  -0.42318
0.71638  -0.468799  -0.516746
0.620053  -0.543407  -0.5659
0.9366  -0.152681  -0.315388