<?xml version="1.0"?>
<VTKFile type="PolyData" version="0.1" byte_order="LittleEndian" compressor="vtkZLibDataCompressor">
	<PolyData>
		<Piece NumberOfPoints="454" NumberOfVerts="0" NumberOfLines="0" NumberOfStrips="0" NumberOfPolys="968">
		<PointData Normals="Normals">
		<DataArray type="Float32" Name="Normals" NumberOfComponents="3" format="ascii">
0.679126  -0.050095  -0.73231
0.465753  -0.609349  -0.641691
0.286593  -0.946711  0.146977
0.31985  0.521297  -0.791167
-0.03745  0.909184  -0.414707
0.421505  0.20043  -0.884399
-0.102596  -0.949298  0.297165
0.433728  -0.229018  -0.871453
-0.545206  -0.516023  0.66066
-0.626993  -0.178535  0.758291
-0.198921  0.739939  -0.642589
0.107575  0.751698  -0.650675
-0.677928  0.628411  0.381461
-0.980797  0.063989  0.184237
0.179096  -0.942928  -0.280734
0.338774  0.598965  -0.725585
0.405851  -0.176513  -0.896732
-0.724787  -0.35993  0.587481
-0.511478  -0.54859  0.661392
-0.131103  -0.93718  0.323272
0.624815  -0.722856  -0.295103
-0.253608  0.732656  -0.631583
-0.420152  -0.560884  0.713359
-0.229619  0.838743  0.493747
0.0  0.0  -1.0
0.220317  0.686196  -0.69325
-0.201506  0.94008  -0.275035
-0.666401  0.662878  0.341326
0.59431  -0.192181  -0.780936
0.347238  0.461178  -0.816542
0.210736  0.628003  -0.749135
0.370232  -0.838358  -0.400105
0.068979  -0.992945  -0.096448
-0.310338  -0.730808  0.607955
-0.793545  0.182015  0.580652
-0.106517  -0.914967  0.389216
0.179087  -0.97658  -0.119248
0.448347  -0.8884  -0.098645
0.470044  0.28227  -0.836291
0.268101  0.927102  0.261922
-0.819032  -0.263557  0.509631
0.047003  -0.704498  0.708148
0.07939  0.861449  -0.5016
-0.402519  0.879462  -0.254019
0.171732  0.749923  -0.638846
0.289358  0.755889  -0.587286
0.634184  -0.268121  -0.725205
0.898866  0.107212  -0.424907
-0.090383  -0.828035  0.553344
-0.361532  -0.569788  0.737995
-0.734611  0.053022  0.676414
-0.08701  -0.822093  0.562665
0.417202  -0.878757  -0.231794
0.362364  -0.86555  0.34571
0.570011  -0.776034  -0.269922
-0.119757  0.452308  0.883785
0.437968  0.767634  -0.467892
-0.32646  0.944653  0.032463
0.207419  0.762206  -0.613205
-0.660713  0.220809  0.717427
-0.288293  -0.175316  0.941356
-0.161311  0.976103  0.145606
-0.281748  0.869522  -0.405648
-0.004517  0.961959  0.273155
0.74427  0.237963  -0.624049
-0.146369  0.975248  0.165734
-0.055856  0.994072  0.093278
0.677524  0.118917  -0.725824
0.525854  -0.763731  0.374422
-0.052154  -0.763723  0.643433
-0.489448  0.368457  0.790368
-0.354924  0.11083  0.928303
-0.728982  0.061825  0.681735
0.053981  -0.753329  0.655424
0.321133  -0.66376  0.675497
-0.073911  -0.780397  0.620901
0.562873  0.753495  0.339735
0.349161  -0.359309  -0.865439
0.929753  0.367094  0.02831
0.968911  -0.24238  0.04964
0.215077  0.670911  -0.709662
0.233481  0.64648  -0.726326
0.252665  0.898048  -0.360098
-0.538983  0.45631  0.70801
-0.526363  0.789208  0.316374
-0.243666  0.301346  0.921855
-0.003841  0.967951  -0.251111
-0.409499  -0.80835  0.422944
-0.18029  0.595816  0.782623
-0.23501  -0.127737  0.963563
0.611915  0.594088  -0.52213
0.415483  -0.727682  0.545759
0.063882  -0.682824  0.727785
0.540279  0.721114  -0.433696
-0.680782  -0.314935  0.661326
-0.169725  0.860592  -0.480183
0.328515  0.281896  0.90145
0.749488  0.235619  0.61867
-0.352131  -0.22137  0.909395
0.499296  0.863831  0.067082
0.144952  0.987247  -0.065816
0.22297  0.964806  0.139405
0.389449  0.90283  -0.182284
0.222415  0.765423  0.60387
-0.314819  0.025972  0.948796
-0.333676  -0.463794  0.820705
-0.33488  -0.127241  0.93363
-0.399166  0.010888  0.916814
0.056808  0.997528  0.04136
-0.11974  0.992781  -0.006891
0.060913  0.883347  -0.464744
0.515167  0.746121  0.421789
0.447627  0.607915  0.655797
-0.167905  -0.735682  0.656186
0.0  0.0  -1.0
-0.89066  -0.023633  -0.454056
0.0  0.0  -1.0
0.386141  0.894341  0.225942
0.431114  0.84181  -0.324803
0.201764  0.842486  -0.499508
0.026991  0.95756  -0.286969
0.298648  0.764329  -0.571499
-0.322908  0.746004  0.582417
0.089621  -0.447467  0.889799
-0.196885  -0.636668  0.74558
-0.394448  -0.429153  0.812551
-0.417411  0.676296  0.606953
-0.56308  0.047668  0.825026
-0.344168  0.929848  0.130116
0.451964  0.877104  0.162532
0.326069  0.186231  0.926821
-0.057461  -0.425775  0.903003
-0.634632  -0.71614  -0.290491
-0.484821  -0.221577  -0.84608
-0.794676  -0.597266  0.108461
-0.810914  0.171767  -0.559388
-0.602269  0.042954  -0.797136
-0.8608  -0.42125  -0.285607
0.785545  0.618656  -0.013599
0.522212  0.790513  -0.319975
0.695842  0.678338  -0.235927
0.502742  0.731304  -0.460917
0.059332  0.876118  -0.478432
0.151037  0.749641  -0.644381
-0.231322  0.966014  -0.115354
0.43791  0.637699  -0.6337
-0.024932  -0.773765  0.632981
-0.057671  -0.744665  0.664942
-0.252159  -0.542775  0.801131
-0.152201  -0.652165  0.742641
-0.538243  -0.144859  0.830247
-0.413386  -0.369963  0.832009
-0.679839  0.534018  0.502636
-0.725829  0.22243  0.65092
-0.559488  0.822776  0.100062
0.828947  0.07437  0.554361
0.150877  -0.607171  0.780115
-0.692292  -0.660896  -0.28974
-0.781384  -0.558789  -0.27784
-0.825172  -0.154152  -0.543441
-0.760629  -0.115912  -0.638755
-0.707008  -0.689867  -0.155638
-0.779687  -0.319206  -0.538699
-0.533921  -0.151378  -0.831873
-0.57455  -0.233684  -0.7844
-0.710375  -0.673881  -0.203105
-0.657605  -0.486173  -0.575493
-0.64226  -0.693251  -0.326964
0.975827  -0.105372  0.191466
0.976958  0.152889  -0.148924
0.744735  0.442549  -0.49952
0.119017  0.702912  -0.701249
-0.041957  0.844421  -0.534034
0.230064  0.711453  -0.664007
0.075491  0.749481  -0.657707
0.116187  0.769065  -0.628522
0.056166  0.759786  -0.647742
0.404575  0.529522  -0.745605
0.692519  0.316221  -0.6484
0.583563  0.309407  -0.750814
0.398666  -0.664202  0.632378
0.602036  -0.690831  0.400381
0.041816  -0.870084  0.491127
-0.068682  -0.761332  0.644714
0.041872  -0.86009  0.508421
-0.16216  -0.674022  0.720693
-0.265315  -0.562389  0.783152
-0.339494  -0.498628  0.797567
-0.724111  0.267704  0.635608
-0.545117  -0.078375  0.834688
-0.611297  0.025238  0.790999
-0.430629  -0.336172  0.837584
-0.350292  -0.537442  0.767106
-0.584305  0.73063  0.353225
-0.536791  0.842795  -0.0394
-0.874034  -0.092912  -0.476898
-0.873653  -0.178645  -0.452566
-0.906841  -0.105579  -0.408035
-0.439167  0.495901  -0.749142
-0.41025  0.419058  -0.809991
-0.957263  -0.141524  -0.252228
-0.933639  -0.227432  -0.276755
-0.956676  -0.284096  -0.063714
-0.98917  -0.116178  -0.089694
-0.842113  -0.533518  0.078771
-0.413214  -0.583366  -0.699241
-0.542965  -0.358369  -0.759448
-0.204219  0.465486  -0.861172
-0.431077  -0.403951  -0.806844
-0.519588  -0.486833  -0.702155
-0.377948  -0.429999  -0.819912
-0.533193  -0.816436  -0.22167
-0.317046  -0.863658  0.391889
-0.374683  -0.813727  0.444366
-0.462492  -0.757858  0.460166
-0.528039  -0.505595  -0.682311
-0.354783  -0.409798  -0.840354
0.947425  -0.153299  -0.280867
0.090663  0.843842  -0.528877
-0.233607  0.952588  -0.194945
0.120524  0.730608  -0.672076
0.212954  0.624515  -0.75142
0.183005  0.771216  -0.6097
0.506628  0.234905  -0.829547
0.332089  0.366253  -0.869239
0.68212  -0.022314  -0.7309
0.79185  -0.299741  -0.532099
0.585175  -0.416924  -0.695518
0.490797  -0.865605  0.099229
0.055072  -0.951948  0.301267
0.185335  -0.979331  0.081001
-0.113585  -0.774485  0.622312
0.07534  -0.887847  0.45393
0.127583  -0.938588  0.320585
-0.24876  -0.656308  0.712305
-0.645328  0.361051  0.673196
-0.504884  -0.154025  0.849334
-0.511878  0.003305  0.859052
-0.416712  -0.285281  0.863114
-0.327987  -0.528129  0.783265
-0.245466  -0.665839  0.70456
-0.51344  0.813897  0.271939
-0.537254  0.475782  -0.696412
-0.460126  0.54756  -0.698901
-0.922734  -0.012969  -0.385219
-0.648345  0.325505  -0.688255
-0.040518  0.684025  -0.728332
0.063922  0.719287  -0.691766
-0.835401  -0.391221  0.386072
-0.919536  -0.331803  0.210617
-0.977331  0.141433  0.157548
-0.827952  -0.166124  0.535629
-0.663501  -0.390687  0.638068
-0.514768  -0.623387  0.58856
-0.09637  0.352223  -0.930941
-0.097579  0.27287  -0.95709
0.071056  0.665644  -0.742879
-0.289578  -0.917041  -0.274191
-0.34443  -0.524497  -0.778634
-0.332202  -0.740751  -0.583892
-0.206858  -0.765678  -0.609054
-0.222576  -0.922813  -0.314445
-0.249553  -0.908938  0.333998
0.000314  -0.7588  0.651324
-0.134888  -0.754395  0.642412
-0.181185  -0.710947  0.679504
-0.23769  -0.624261  0.744179
-0.301497  -0.113859  -0.946645
-0.001224  -0.103392  -0.99464
0.038296  0.295833  -0.954472
0.054576  0.907636  -0.416194
0.180349  0.81282  -0.553894
-0.130037  0.981915  -0.137596
-0.432038  0.86963  0.238929
0.236962  0.433271  -0.869555
0.203249  0.683019  -0.701552
0.186799  0.688368  -0.700896
0.344748  0.525547  -0.777785
0.356597  0.645436  -0.675463
0.312468  0.046633  -0.948783
0.469405  -0.206622  -0.858468
0.575957  -0.644543  -0.50283
0.5152  -0.799332  -0.309254
0.288327  -0.952379  -0.09921
0.35362  -0.442638  -0.824029
0.321864  -0.874401  -0.363079
0.156488  -0.973337  0.167711
0.088838  -0.919084  0.383916
-0.135401  -0.7848  0.604777
0.193474  -0.943251  0.269898
0.170682  -0.946364  0.274341
-0.431596  0.808257  0.400557
-0.484288  0.335063  0.808207
-0.458442  -0.080184  0.8851
-0.262953  -0.638334  0.723454
-0.133098  -0.775122  0.617633
-0.505847  0.017402  0.862447
-0.231061  -0.510325  0.82836
-0.299114  -0.254856  0.919554
-0.193356  0.638807  -0.744674
-0.654067  0.61704  -0.43756
-0.637853  0.350987  -0.685531
-0.251996  0.646  -0.720543
0.145908  0.682203  -0.716457
-0.017001  0.753418  -0.657322
0.119484  0.71128  -0.692679
0.145887  0.816852  -0.558094
0.152203  0.805365  -0.572906
0.251126  0.651228  -0.716127
-0.618816  -0.34801  0.704241
-0.421941  -0.506977  0.751625
-0.852512  -0.161086  0.497267
-0.693823  0.033357  0.719372
-0.588393  0.807856  -0.034105
-0.810953  0.424319  0.402876
-0.320972  -0.206586  0.924283
-0.439573  -0.212265  0.872765
-0.284725  -0.426013  0.858746
-0.386941  -0.210941  0.897653
-0.190666  -0.508072  0.839946
0.084427  0.704184  -0.704981
0.173402  0.726105  -0.665359
0.103501  0.627475  -0.771727
0.004467  -0.938436  0.345425
-0.102852  -0.901515  0.420348
-0.139464  -0.858491  -0.493501
0.165978  -0.413028  -0.895466
0.007932  -0.000636  -0.999968
0.107389  -0.986737  -0.121728
0.026827  -0.999244  -0.028127
0.029086  -0.924695  0.379597
0.13812  -0.792856  0.59355
0.072396  -0.603711  0.793909
0.258363  -0.655996  0.709167
-0.03132  0.244286  -0.969197
0.093593  0.395689  -0.913603
0.013175  0.929294  -0.369106
0.375731  0.636734  -0.673347
0.087377  0.888407  -0.450664
0.24873  0.753742  -0.608281
-0.049894  0.986725  -0.154545
0.556718  -0.212022  -0.803188
0.473106  0.438904  -0.763894
0.452997  0.516489  -0.726659
0.349679  -0.935968  -0.041086
0.085683  -0.963831  0.252366
0.220923  -0.946326  0.235925
0.379909  -0.923997  -0.043579
-0.023183  -0.983604  0.178845
-0.306018  0.871062  0.384192
-0.360026  0.654815  0.664529
-0.3815  -0.005723  0.924351
-0.349763  0.456495  0.818094
0.191164  -0.902305  0.386397
0.020157  -0.785141  0.618989
-0.060611  -0.574941  0.815947
-0.152034  -0.175601  0.972651
-0.142996  -0.303716  0.941971
-0.264458  0.9059  -0.330767
-0.292572  0.792547  -0.535044
-0.058842  0.888067  -0.455932
0.300215  0.726458  -0.618166
0.068789  0.891911  -0.446948
0.192443  0.846718  -0.496018
0.062639  0.980852  -0.184407
0.282347  0.696516  -0.659656
0.281756  0.731999  -0.620316
0.221087  0.811837  -0.540408
0.243358  0.757827  -0.605372
-0.544722  0.271433  0.793475
-0.151576  0.017749  0.988286
-0.061671  0.996656  0.053613
-0.51934  0.636085  0.570685
-0.257144  0.893116  0.369082
-0.075677  -0.286246  0.955163
-0.078254  -0.238805  0.967909
-0.11749  -0.247921  0.96163
-0.018578  -0.362628  0.931749
0.016823  -0.440262  0.897712
0.317881  0.685415  -0.655102
0.280375  0.749067  -0.60024
0.257338  0.809649  -0.52749
0.294331  0.743018  -0.601077
0.230928  0.655072  -0.719412
0.227685  0.46062  -0.857898
0.302388  -0.857362  0.416523
0.250565  -0.854295  -0.455409
0.05175  -0.967906  -0.245926
0.111629  -0.979216  0.169337
0.555221  -0.388711  -0.735278
0.222386  0.182456  -0.957734
0.437721  0.109025  -0.892476
0.342661  -0.736583  0.58312
0.334067  -0.656883  0.675947
0.197332  -0.681853  0.70437
0.363129  -0.692365  0.623513
0.277391  -0.718006  0.638374
0.588068  0.39465  -0.705994
0.540388  0.520565  -0.661055
0.30027  0.704892  -0.642624
0.191332  0.822827  -0.535115
-0.033964  0.994949  -0.094458
0.195322  0.898581  -0.392939
0.611743  0.176623  -0.771086
0.641243  -0.510902  -0.572526
0.584942  -0.691032  -0.424638
0.366325  -0.930487  -0.000341
0.21134  -0.958395  0.191872
0.549616  -0.796338  -0.252523
-0.235271  0.885576  0.400503
-0.116463  0.278288  0.953411
-0.120135  0.803661  0.582834
0.458796  -0.885813  -0.069585
0.544001  -0.838707  0.025153
0.368793  -0.877477  0.306637
0.20004  -0.798212  0.568191
0.381352  -0.844789  0.37537
0.059903  -0.754799  0.653215
-0.019048  -0.059197  0.998065
0.096521  0.981313  -0.166457
0.083332  0.964584  0.250266
-0.24579  0.365317  0.897848
-0.037156  0.240841  0.969853
-0.047406  0.654641  0.754452
0.081025  0.882063  0.464112
0.61612  0.612743  -0.494916
0.422533  0.634495  -0.647211
0.436696  0.482352  -0.759363
0.751877  -0.600308  -0.272602
0.30634  -0.949706  0.064913
0.551219  -0.828411  -0.099465
0.413832  -0.720675  0.55621
0.56564  0.171256  -0.806674
0.729266  -0.074706  -0.68014
0.459261  -0.641207  0.614762
0.603366  0.211487  -0.76891
0.692561  0.239436  -0.680463
0.799603  -0.158465  -0.579244
0.838306  0.119782  -0.53188
0.750557  0.38674  -0.535814
-0.048246  0.997848  0.044403
0.703218  -0.519201  -0.48571
0.57749  -0.766528  -0.280961
0.53351  -0.839546  -0.102609
0.670154  -0.742133  0.011495
0.688667  -0.667515  0.283127
0.671364  0.572567  -0.470572
0.800563  0.366719  -0.473937
0.978312  -0.1651  -0.125088
0.842747  -0.496765  0.20737
0.674399  -0.643647  0.361808
0.841839  -0.456757  -0.28754
0.979895  -0.089809  -0.178157
0.865883  -0.356988  0.350437
		</DataArray>
	</PointData>
	<Points>
		<DataArray type="Float32" NumberOfComponents="3" format="ascii">
0.008791  -0.070596  0.051399
0.009385  -0.07009  0.051827
0.009093  -0.070136  0.051377
0.009658  -0.070538  0.051805
0.009456  -0.070824  0.051419
0.00836  -0.070729  0.051076
0.008572  -0.070499  0.050603
0.00987  -0.070142  0.052087
0.010245  -0.070181  0.051603
0.009492  -0.070446  0.05107
0.010209  -0.070556  0.051948
0.008705  -0.071076  0.050874
0.010009  -0.070823  0.051546
0.009259  -0.071057  0.050983
0.009795  -0.070885  0.051
0.008155  -0.07105  0.050723
0.00782  -0.070601  0.050831
0.008914  -0.070864  0.050418
0.008252  -0.070987  0.049836
0.007827  -0.070685  0.049999
0.011071  -0.069686  0.052742
0.010794  -0.070059  0.052527
0.010405  -0.069873  0.052028
0.01077  -0.070459  0.051985
0.010535  -0.070598  0.05153
0.007575  -0.071483  0.050084
0.008127  -0.071487  0.050215
0.008694  -0.07135  0.050216
0.006548  -0.070892  0.050146
0.005925  -0.071414  0.049638
0.006478  -0.071407  0.04976
0.006934  -0.070597  0.050272
0.007382  -0.070518  0.050482
0.007264  -0.07096  0.049216
0.00801  -0.071332  0.049368
0.006906  -0.070741  0.049534
0.006172  -0.07067  0.049603
0.011808  -0.069396  0.053275
0.01155  -0.06975  0.053019
0.011526  -0.070155  0.052483
0.01129  -0.070322  0.052051
0.011758  -0.069566  0.05259
0.006995  -0.071932  0.049461
0.00755  -0.071904  0.049562
0.006443  -0.071925  0.049326
0.00552  -0.072002  0.048882
0.005208  -0.071153  0.04953
0.005009  -0.071421  0.04913
0.006712  -0.070944  0.049073
0.007058  -0.071271  0.048851
0.007771  -0.071577  0.049002
0.005973  -0.070916  0.04918
0.005619  -0.070666  0.049471
0.005424  -0.070881  0.04902
0.012305  -0.069195  0.053319
0.011981  -0.069068  0.053706
0.012517  -0.06906  0.053808
0.01223  -0.069912  0.053098
0.012471  -0.069695  0.053484
0.012042  -0.070043  0.052575
0.012308  -0.069579  0.052728
0.006244  -0.072183  0.048916
0.007358  -0.072091  0.049085
0.006802  -0.072124  0.048989
0.004977  -0.071902  0.048662
0.005879  -0.072203  0.048545
0.005324  -0.072223  0.048436
0.004566  -0.071955  0.04838
0.005223  -0.071163  0.048631
0.006133  -0.071378  0.048435
0.006847  -0.071658  0.048559
0.006482  -0.071678  0.048189
0.007726  -0.0722  0.048664
0.005575  -0.071433  0.048358
0.012999  -0.068869  0.053883
0.012894  -0.069089  0.053315
0.012564  -0.068431  0.054141
0.011959  -0.068801  0.054335
0.012012  -0.068413  0.053995
0.011558  -0.068656  0.053759
0.013234  -0.069325  0.053921
0.012708  -0.068891  0.054301
0.013266  -0.068846  0.054389
0.012761  -0.069575  0.052991
0.013148  -0.069609  0.053373
0.005929  -0.071682  0.048066
0.007163  -0.072313  0.048642
0.006828  -0.072287  0.048258
0.004697  -0.072374  0.047921
0.005363  -0.071824  0.04807
0.004025  -0.072435  0.047729
0.004155  -0.071901  0.048015
0.004812  -0.071809  0.047929
0.006585  -0.07257  0.047862
0.006326  -0.072027  0.047791
0.007524  -0.072449  0.048248
0.013119  -0.068358  0.054195
0.013485  -0.068526  0.053834
0.013448  -0.069073  0.053428
0.01291  -0.068607  0.05469
0.012234  -0.068081  0.053429
0.012878  -0.068155  0.05373
0.012222  -0.068059  0.054319
0.012392  -0.068285  0.054733
0.012219  -0.068872  0.054962
0.011442  -0.069744  0.054054
0.011218  -0.068779  0.054488
0.011537  -0.068428  0.054663
0.011406  -0.067954  0.053582
0.013788  -0.069307  0.054031
0.013593  -0.06953  0.053588
0.013727  -0.068993  0.054569
0.0134  -0.068838  0.054988
0.007243  -0.072503  0.047792
0.003526  -0.072445  0.047532
0.003197  -0.072861  0.047279
0.006385  -0.072369  0.047405
0.013919  -0.069019  0.053626
0.013136  -0.068376  0.053307
0.012043  -0.068256  0.052942
0.011188  -0.068061  0.053079
0.013445  -0.069062  0.052489
0.011211  -0.068153  0.05426
0.013216  -0.069349  0.054851
0.012247  -0.070055  0.054076
0.010809  -0.069588  0.053912
0.010634  -0.068253  0.053992
0.010227  -0.068529  0.053883
0.010314  -0.068112  0.053433
0.01434  -0.069307  0.054158
0.014022  -0.069387  0.054825
0.013549  -0.069692  0.054663
0.003117  -0.072352  0.047135
0.002689  -0.072626  0.047422
0.00307  -0.072642  0.04654
0.002951  -0.073361  0.047269
0.002602  -0.074072  0.047421
0.003355  -0.073078  0.046744
0.014551  -0.06945  0.053604
0.013487  -0.068656  0.053044
0.014367  -0.069191  0.053142
0.014072  -0.069273  0.052725
0.010387  -0.068238  0.052542
0.011844  -0.068517  0.052533
0.009976  -0.068119  0.053016
0.013473  -0.069473  0.052013
0.013703  -0.070343  0.054076
0.012769  -0.070524  0.053725
0.010387  -0.070357  0.053323
0.012013  -0.070416  0.053733
0.009513  -0.069765  0.053171
0.009317  -0.070235  0.052923
0.009813  -0.068473  0.05352
0.009533  -0.068856  0.053317
0.009159  -0.068506  0.052669
0.014655  -0.069639  0.054372
0.014003  -0.06996  0.054467
0.002465  -0.072207  0.047216
0.00258  -0.072294  0.046502
0.001914  -0.072361  0.048175
0.002148  -0.073911  0.047697
0.003319  -0.073009  0.046173
0.00284  -0.072473  0.046038
0.003705  -0.074163  0.046842
0.002887  -0.074481  0.047218
0.002419  -0.074524  0.047688
0.004038  -0.073814  0.046377
0.003635  -0.073396  0.046444
0.014779  -0.069869  0.053813
0.014715  -0.070011  0.053309
0.014373  -0.069687  0.052637
0.010841  -0.068757  0.05217
0.009628  -0.068574  0.052076
0.012892  -0.069411  0.051792
0.01164  -0.06882  0.052163
0.010325  -0.069189  0.051598
0.011086  -0.069088  0.051845
0.013235  -0.069779  0.051609
0.01414  -0.069883  0.052221
0.013706  -0.069954  0.051829
0.014262  -0.070265  0.05413
0.014562  -0.07045  0.053715
0.013483  -0.070974  0.053098
0.011628  -0.071055  0.05305
0.012185  -0.071003  0.05313
0.010696  -0.071226  0.052692
0.010177  -0.070724  0.053012
0.009629  -0.070675  0.052839
0.008858  -0.069198  0.05274
0.008007  -0.070309  0.052119
0.008607  -0.069657  0.052557
0.007791  -0.070743  0.051871
0.00889  -0.070948  0.052295
0.008507  -0.069194  0.052332
0.009064  -0.06869  0.052054
0.002095  -0.07163  0.047156
0.001895  -0.071429  0.047662
0.002287  -0.07198  0.046794
0.002629  -0.071678  0.046387
0.002983  -0.07193  0.046099
0.001816  -0.073402  0.048209
0.00143  -0.071406  0.048529
0.001624  -0.072193  0.048617
0.001679  -0.07279  0.048572
0.001981  -0.073985  0.048208
0.003949  -0.073263  0.045718
0.003419  -0.072891  0.045697
0.003333  -0.072232  0.045855
0.00354  -0.074872  0.046929
0.004877  -0.074493  0.046118
0.004281  -0.074729  0.046649
0.003082  -0.074974  0.047469
0.003263  -0.074903  0.048053
0.002913  -0.074617  0.048311
0.002564  -0.074311  0.048551
0.005186  -0.074152  0.045637
0.0047  -0.073619  0.045496
0.014715  -0.070377  0.052878
0.009222  -0.069176  0.051332
0.008486  -0.069118  0.051412
0.011613  -0.069262  0.051661
0.012688  -0.069721  0.051429
0.010049  -0.069469  0.051127
0.013126  -0.070295  0.051277
0.01265  -0.070272  0.051027
0.014007  -0.070452  0.051965
0.014383  -0.070476  0.052355
0.01332  -0.070783  0.051396
0.014175  -0.070957  0.053018
0.012611  -0.071173  0.052678
0.013288  -0.071184  0.052642
0.010493  -0.071525  0.052318
0.011049  -0.071483  0.052407
0.01199  -0.071233  0.052692
0.009593  -0.0712  0.052413
0.00783  -0.069698  0.051884
0.007256  -0.070615  0.051619
0.006721  -0.070386  0.051288
0.006277  -0.071372  0.050897
0.007745  -0.07137  0.051537
0.00939  -0.071505  0.052044
0.008194  -0.069223  0.051895
0.002197  -0.07109  0.047175
0.002658  -0.071225  0.04688
0.001334  -0.070904  0.048452
0.001909  -0.070921  0.04762
0.003246  -0.070707  0.047441
0.004157  -0.070912  0.047235
0.001885  -0.073452  0.048809
0.001452  -0.071836  0.048993
0.001295  -0.070679  0.049029
0.001776  -0.072524  0.049118
0.00173  -0.071763  0.049471
0.002222  -0.073938  0.048729
0.003857  -0.072683  0.045489
0.004583  -0.072803  0.045462
0.005036  -0.0716  0.046566
0.003825  -0.07527  0.047177
0.005874  -0.074531  0.045371
0.005357  -0.074884  0.046105
0.005059  -0.07522  0.046594
0.004429  -0.075323  0.046951
0.003618  -0.075148  0.047757
0.004192  -0.074775  0.048451
0.003459  -0.07468  0.048496
0.003109  -0.074381  0.048742
0.002763  -0.074052  0.048961
0.005294  -0.073675  0.045263
0.004926  -0.073202  0.045312
0.005373  -0.073005  0.04543
0.008101  -0.069494  0.050461
0.008562  -0.069869  0.049949
0.007625  -0.069327  0.050983
0.007908  -0.069273  0.05144
0.011544  -0.07028  0.050778
0.011028  -0.069753  0.051076
0.010544  -0.069788  0.050879
0.010619  -0.070382  0.050357
0.009905  -0.070089  0.05022
0.012424  -0.07081  0.050873
0.012892  -0.070715  0.051042
0.013689  -0.070803  0.051789
0.014035  -0.070965  0.052331
0.013105  -0.071258  0.052065
0.011966  -0.071012  0.050774
0.012323  -0.071347  0.051436
0.012433  -0.071314  0.052145
0.010294  -0.071783  0.051908
0.009739  -0.071804  0.051798
0.011724  -0.071429  0.052146
0.010854  -0.071709  0.051967
0.007086  -0.069493  0.050969
0.006262  -0.070364  0.051013
0.005955  -0.070781  0.050874
0.008464  -0.071611  0.051627
0.006954  -0.072201  0.050618
0.005304  -0.071829  0.050325
0.005852  -0.072165  0.050329
0.00475  -0.072133  0.050045
0.002508  -0.070668  0.047538
0.001523  -0.070221  0.048342
0.001669  -0.070589  0.047948
0.002547  -0.070109  0.047933
0.00446  -0.070242  0.047799
0.00311  -0.069996  0.047956
0.005244  -0.071251  0.046892
0.005446  -0.070971  0.047284
0.00564  -0.070752  0.047731
0.004915  -0.070582  0.047707
0.002039  -0.073127  0.049232
0.002325  -0.073529  0.049154
0.001488  -0.071234  0.049389
0.001718  -0.070973  0.049756
0.001814  -0.069865  0.04875
0.001556  -0.070226  0.049308
0.002529  -0.072247  0.04964
0.002222  -0.072664  0.049504
0.002194  -0.071805  0.049755
0.0022  -0.071087  0.050068
0.002802  -0.073496  0.049358
0.005561  -0.072052  0.0462
0.005764  -0.071754  0.046575
0.005741  -0.072442  0.045867
0.00453  -0.075352  0.047552
0.004167  -0.075183  0.047917
0.005889  -0.074963  0.04583
0.006696  -0.074504  0.045296
0.00612  -0.073955  0.045149
0.005656  -0.075289  0.04684
0.004901  -0.075417  0.04709
0.005213  -0.075323  0.047477
0.004726  -0.075119  0.047986
0.004511  -0.074322  0.048791
0.005079  -0.074389  0.04854
0.005802  -0.073553  0.045218
0.006196  -0.073262  0.045342
0.007443  -0.069463  0.050455
0.008955  -0.070604  0.04927
0.007355  -0.069704  0.049878
0.008035  -0.070646  0.048793
0.006744  -0.069496  0.050555
0.011481  -0.071095  0.05062
0.010409  -0.070746  0.050043
0.009533  -0.070754  0.049481
0.011281  -0.07171  0.05138
0.009165  -0.072188  0.051116
0.01015  -0.071999  0.051386
0.010518  -0.071979  0.050864
0.00861  -0.072207  0.051006
0.006295  -0.069574  0.050347
0.005776  -0.069757  0.050317
0.00542  -0.070615  0.050595
0.004992  -0.070372  0.050351
0.007844  -0.072777  0.049846
0.006889  -0.072865  0.04984
0.005432  -0.072908  0.049715
0.004145  -0.071477  0.050116
0.003701  -0.072143  0.04986
0.002387  -0.069658  0.048688
0.002188  -0.069921  0.048282
0.002753  -0.069785  0.048284
0.005496  -0.070139  0.048338
0.004045  -0.069806  0.048298
0.004774  -0.069931  0.048279
0.003458  -0.069595  0.048941
0.005795  -0.07127  0.047038
0.005996  -0.071001  0.04744
0.006192  -0.070766  0.047873
0.006214  -0.070382  0.048427
0.001968  -0.070402  0.049851
0.002596  -0.070801  0.050186
0.002646  -0.069534  0.049122
0.001932  -0.069882  0.049489
0.002399  -0.069655  0.049557
0.00292  -0.071961  0.049765
0.003248  -0.072477  0.049718
0.00285  -0.072843  0.049666
0.002652  -0.071541  0.049973
0.004098  -0.073469  0.049328
0.006408  -0.071356  0.047318
0.00706  -0.071573  0.047312
0.006863  -0.071803  0.046874
0.006668  -0.072024  0.046429
0.006639  -0.072484  0.045943
0.006602  -0.073015  0.045523
0.005777  -0.075178  0.047472
0.006883  -0.074957  0.045774
0.006402  -0.075131  0.046087
0.006211  -0.075254  0.046934
0.00739  -0.0746  0.045684
0.00655  -0.073713  0.045256
0.007229  -0.073976  0.045414
0.006234  -0.074863  0.047483
0.005407  -0.074899  0.048025
0.005328  -0.07373  0.049058
0.006085  -0.074288  0.048125
0.005927  -0.073996  0.048581
0.008766  -0.071413  0.048507
0.008147  -0.071757  0.047736
0.007807  -0.071363  0.047895
0.006416  -0.070094  0.048812
0.005796  -0.069622  0.049517
0.005515  -0.069791  0.048927
0.010202  -0.071098  0.049719
0.010744  -0.071514  0.050187
0.011131  -0.071548  0.050568
0.009745  -0.072239  0.050357
0.008969  -0.072371  0.050641
0.010329  -0.071948  0.05021
0.005355  -0.069695  0.04996
0.004361  -0.070394  0.050162
0.004069  -0.069853  0.049759
0.00927  -0.072422  0.049377
0.008709  -0.072729  0.04887
0.007782  -0.073028  0.049239
0.006396  -0.073556  0.048899
0.007254  -0.073476  0.048542
0.006343  -0.073117  0.049515
0.003924  -0.070891  0.050204
0.004604  -0.069704  0.04879
0.003913  -0.069686  0.049274
0.002436  -0.07034  0.050044
0.003098  -0.070439  0.0501
0.00284  -0.069965  0.049949
0.003224  -0.069597  0.04952
0.00721  -0.072133  0.046657
0.007052  -0.072432  0.046221
0.007149  -0.073083  0.045713
0.007713  -0.07458  0.046113
0.006974  -0.07507  0.046629
0.00724  -0.074966  0.046178
0.006983  -0.074794  0.047288
0.007476  -0.0736  0.045666
0.007684  -0.074065  0.045748
0.006843  -0.074117  0.047833
0.009503  -0.071346  0.049098
0.008545  -0.071742  0.048063
0.008795  -0.072441  0.048268
0.008198  -0.072398  0.047521
0.007797  -0.07261  0.046847
0.004992  -0.069681  0.04956
0.009711  -0.07201  0.049334
0.010026  -0.071984  0.049768
0.009548  -0.072297  0.049786
0.008488  -0.072875  0.048319
0.007583  -0.07371  0.047744
0.007545  -0.072767  0.046275
0.007772  -0.07325  0.046088
0.007966  -0.074011  0.046206
0.007755  -0.074342  0.046725
0.007427  -0.074832  0.046705
0.008273  -0.073019  0.047774
0.00807  -0.073029  0.047067
0.007696  -0.073943  0.047178
		</DataArray>
	</Points>
			<Polys>
				<DataArray type="Int32" Name="connectivity" format="ascii">
2  1  0
3  0  1
4  0  3
4  5  0
0  5  6
6  2  0
3  1  7
7  1  8
1  2  8
8  2  9
9  2  6
4  3  10
10  3  7
11  5  4
12  4  10
4  12  13
13  11  4
9  4  8
9  13  4
8  4  12
4  14  12
4  13  14
11  15  5
16  5  15
5  16  6
18  17  6
6  19  18
6  17  13
6  16  19
6  13  9
21  7  20
21  22  7
10  7  22
7  22  20
22  7  8
8  10  22
10  8  12
22  21  10
10  21  23
10  23  24
24  12  10
22  10  23
10  12  24
10  24  23
26  25  11
25  15  11
12  11  13
27  26  11
11  12  14
14  13  11
13  27  11
27  13  17
16  15  25
29  28  16
30  16  25
28  31  16
30  29  16
16  31  32
19  16  32
17  18  27
19  33  18
33  34  18
27  18  34
33  19  35
19  32  31
36  19  31
19  36  35
20  38  37
38  20  37
39  20  38
20  39  40
40  21  20
20  22  21
21  40  20
38  20  41
39  20  40
39  41  20
40  23  21
21  22  40
40  22  23
43  42  25
25  26  43
25  44  30
42  44  25
34  26  27
26  34  43
36  28  29
31  28  36
44  29  30
29  44  45
36  29  46
29  47  46
47  29  45
35  48  33
49  33  48
33  50  34
49  50  33
50  43  34
48  35  36
51  48  36
36  46  52
36  53  51
52  53  36
38  37  54
37  38  41
55  54  37
55  37  56
37  54  56
54  37  41
38  57  39
58  38  54
57  38  58
39  57  59
41  39  59
57  41  59
54  41  60
60  41  57
44  42  61
44  61  42
42  43  62
44  42  63
62  63  42
43  50  62
44  61  45
61  44  63
45  64  47
61  65  45
65  66  45
67  64  45
66  67  45
53  52  46
53  46  47
68  53  47
47  64  68
69  49  48
69  48  51
49  70  50
71  49  69
70  49  71
72  62  50
50  70  63
50  63  72
73  69  51
51  68  73
53  68  51
54  56  58
56  54  55
54  74  56
54  60  75
74  54  75
74  55  56
76  55  74
56  55  77
55  76  78
78  79  55
77  55  79
58  56  80
80  56  74
81  56  77
56  81  82
74  56  82
60  57  83
83  57  58
84  57  58
57  84  58
84  58  80
84  83  58
60  83  75
61  63  62
62  63  61
61  63  70
61  70  71
85  61  71
65  61  85
62  72  86
86  63  62
63  70  71
63  71  70
72  63  86
87  86  63
63  86  87
88  64  67
64  88  67
64  67  68
65  85  66
67  66  88
66  85  89
89  88  66
73  68  67
88  90  67
67  90  91
73  67  92
67  91  92
85  71  69
69  89  85
69  73  89
71  85  70
85  71  70
87  93  71
87  71  94
94  71  93
86  72  95
86  95  72
92  89  73
80  74  82
96  76  74
74  98  97
98  74  75
96  74  97
75  83  98
78  76  77
81  77  76
76  99  81
76  101  100
96  101  76
102  76  78