<?xml version="1.0"?>
<VTKFile type="PolyData" version="0.1" byte_order="LittleEndian" compressor="vtkZLibDataCompressor">
	<PolyData>
		<Piece NumberOfPoints="578" NumberOfVerts="0" NumberOfLines="0" NumberOfStrips="0" NumberOfPolys="1166">
		<PointData Normals="Normals">
		<DataArray type="Float32" Name="Normals" NumberOfComponents="3" format="ascii">
-0.341009  -0.807546  0.481231
-0.35432  -0.607615  0.710817
0.067549  -0.802111  0.593342
0.128739  -0.909654  0.394913
-0.755583  -0.57424  0.315188
-0.154426  -0.98799  0.005256
-0.542714  -0.837871  -0.058599
-0.127263  -0.600055  0.789771
-0.455585  -0.272752  0.847378
-0.557314  -0.124915  0.820852
-0.613826  -0.44384  0.652858
0.125936  -0.701844  0.70111
0.606361  -0.75778  0.241029
0.3324  -0.942121  -0.043807
-0.922764  -0.153041  0.353675
-0.788668  -0.6058  -0.104923
-0.936405  -0.346764  0.053857
-0.06224  -0.977472  -0.201678
0.328618  -0.91581  -0.230873
-0.63249  -0.608735  -0.478955
-0.256481  -0.894637  -0.365845
-0.06774  -0.366991  0.927755
-0.429312  -0.126732  0.89422
-0.93198  0.10967  0.345522
-0.213777  0.061469  0.974947
-0.582008  0.015189  0.813041
0.558097  -0.447933  0.698486
0.457552  -0.581685  0.672525
0.813789  -0.474886  0.33501
0.908907  -0.416736  0.014773
0.742799  -0.667841  -0.047309
-0.997106  -0.071356  0.026237
-0.886001  -0.392969  -0.246127
0.816995  -0.567509  -0.10224
0.506122  -0.803556  -0.313271
0.032418  -0.839368  -0.542596
-0.881505  -0.2649  -0.390867
-0.317929  -0.753497  -0.575468
-0.122797  -0.682491  -0.720504
-0.681174  -0.376133  -0.628113
-0.492689  -0.55755  -0.668128
-0.187682  -0.131435  0.973396
0.264975  -0.292379  0.918859
-0.96761  0.20163  0.151908
-0.966616  0.251155  0.050729
-0.786514  0.167792  0.594341
-0.934506  0.270695  0.231135
0.157881  -0.040161  0.986641
-0.207952  0.055064  0.976588
0.33985  0.137231  0.930414
0.437167  -0.028553  0.898927
-0.538943  0.062311  0.840035
0.777494  -0.178188  0.603119
0.882527  -0.347175  0.317201
0.958585  -0.272767  -0.081932
0.971031  -0.238943  -0.00228
0.9861  -0.133894  0.098382
-0.989125  0.000165  -0.147079
-0.983635  0.163243  0.076252
0.792705  -0.536972  -0.288583
0.315877  -0.713237  -0.625712
0.566392  -0.45598  -0.6865
-0.946314  -0.071696  -0.315196
-0.755177  -0.356403  -0.550168
-0.366017  -0.520665  -0.771324
0.341616  -0.517593  -0.784471
-0.952299  0.280585  0.119998
-0.974176  0.225327  0.01443
-0.971515  0.236453  -0.015778
-0.978963  0.199914  -0.040808
-0.932734  0.343369  0.110023
-0.951813  0.299126  0.067641
-0.415596  0.270544  0.868381
-0.715322  0.373627  0.590522
-0.866144  0.376652  0.328522
-0.067337  0.233224  0.970089
0.149832  0.272708  0.950358
0.651484  0.111561  0.750415
0.787165  -0.054976  0.614287
0.923998  -0.067553  0.376383
0.906838  -0.079459  0.413921
0.987168  -0.096126  0.127515
0.918879  -0.246745  -0.307861
0.917744  -0.210221  -0.336976
0.966846  -0.126536  0.221803
0.93656  -0.293035  0.192319
0.929982  -0.364547  -0.047329
0.918887  -0.374654  -0.12362
0.810752  -0.324493  -0.487221
0.642071  -0.311086  -0.700692
-0.890267  -0.201681  -0.408349
-0.975553  0.219748  -0.002588
-0.964057  0.013173  -0.265368
-0.52651  -0.553641  -0.645189
-0.804805  -0.323085  -0.497901
0.085548  -0.585037  -0.806482
0.466316  -0.490919  -0.7359
0.693107  -0.411632  -0.591745
0.525925  -0.488252  -0.696429
-0.977268  0.206797  0.046712
-0.888072  0.404662  0.218123
-0.969792  0.233834  0.069472
-0.95472  0.295474  0.034704
-0.526975  0.2867  0.800063
-0.749821  0.481819  0.453452
0.725519  0.283615  0.627045
-0.05928  0.233  0.970668
0.612483  0.279989  0.739237
0.925999  0.112195  0.360469
0.975521  -0.038475  0.216516
0.786419  -0.453815  -0.419044
0.920541  -0.151461  0.360088
0.87791  -0.462701  -0.123214
0.861963  -0.10405  0.496178
0.918425  -0.275804  0.283597
0.909316  -0.411826  0.059526
0.864047  -0.444213  -0.236851
-0.70203  -0.224041  -0.675988
-0.940666  0.210673  -0.266016
-0.884348  -0.062401  -0.462639
-0.461679  -0.484597  -0.74298
0.441754  -0.425702  -0.789703
-0.058198  -0.443101  -0.894581
0.654693  -0.519491  -0.549096
0.713583  -0.52472  -0.464185
0.548083  -0.559726  -0.62154
0.191188  -0.457072  -0.868638
-0.042967  -0.288903  -0.956394
0.073956  -0.289197  -0.954408
-0.966823  0.181173  0.180082
-0.978485  0.173274  0.111995
-0.87806  0.353382  0.322695
-0.801387  0.504591  0.321196
-0.995565  0.093733  0.008067
-0.962132  0.146103  -0.23012
-0.952414  0.30233  -0.038791
-0.707776  0.566853  0.421582
-0.737692  0.351036  0.576702
-0.108356  0.432856  0.894927
0.894318  0.157754  0.418699
0.67486  0.26494  0.688746
0.8151  0.151913  0.559048
0.424838  0.449448  0.785818
0.884962  -0.03136  0.464606
0.802797  -0.51794  -0.29539
0.899151  -0.437569  -0.007762
0.855629  -0.197705  0.478344
0.729272  0.025125  0.683762
0.899242  -0.330376  0.286732
-0.67142  -0.101905  -0.734037
-0.659104  0.225869  -0.717332
-0.806389  0.067286  -0.587545
0.636286  -0.603799  -0.480174
0.275564  -0.567813  -0.775663
-0.150006  -0.020433  -0.988474
-0.25385  -0.443413  -0.859619
-0.36549  0.060785  -0.928828
-0.902285  0.269832  0.336262
-0.986383  0.08725  0.139414
-0.942526  0.159008  0.293872
-0.708512  0.523801  0.47291
-0.648181  0.391224  0.653303
-0.971992  -0.073896  -0.223094
-0.98962  0.088729  -0.113046
-0.871272  -0.124007  -0.474876
-0.256722  0.619847  0.741541
-0.285266  0.72086  0.631652
0.15154  0.654059  0.741109
-0.463089  0.688487  0.558152
0.456197  0.304009  0.836338
0.326628  0.466748  0.821864
0.811556  -0.552065  -0.191313
0.883373  -0.457036  0.103781
0.708666  0.042752  0.704248
0.682249  0.073079  0.727458
0.797993  -0.180367  0.575043
0.62649  0.045899  0.778077
0.444647  0.192219  0.874838
0.882769  -0.36089  0.300793
-0.370292  -0.000171  -0.928915
-0.540113  0.178094  -0.822533
-0.730557  -0.260752  -0.631107
0.547805  -0.642354  -0.535996
0.627464  -0.637599  -0.44694
0.744683  -0.610069  -0.270672
0.42179  -0.630307  -0.651771
0.540807  -0.629176  -0.55827
0.0  0.0  -1.0
0.013997  -0.57737  -0.816362
-0.511348  -0.420489  -0.749475
-0.924909  0.199766  0.323475
-0.790691  0.338515  0.510113
-0.521887  0.361097  0.772814
-0.920137  0.174912  0.350363
-0.99815  0.014359  -0.059088
-0.99937  0.032338  0.014625
-0.291885  0.433359  0.852645
-0.931567  -0.236968  -0.275734
-0.90399  -0.169376  -0.392574
-0.782798  -0.271043  -0.560145
-0.055602  0.655978  0.752729
0.106257  0.395766  0.912184
0.842738  -0.533639  -0.070863
0.872397  -0.435237  0.222471
0.540835  0.037233  0.840304
0.741608  -0.30023  0.599899
0.784882  -0.472033  0.401429
0.650717  -0.149271  0.744504
0.34331  0.21019  0.915401
0.056724  0.303047  0.951286
0.559376  -0.704144  -0.437355
0.448915  -0.685707  -0.572958
0.393658  -0.633754  -0.665875
0.846096  -0.53264  -0.02042
0.779925  -0.601981  -0.171276
0.661834  -0.677941  -0.319956
0.763214  -0.646059  -0.010608
0.157804  -0.658206  -0.736113
0.0  0.0  -1.0
-0.27139  -0.549181  -0.79041
-0.75101  -0.335285  -0.568831
-0.561062  -0.433952  -0.704908
-0.926415  0.298455  0.22952
-0.795147  0.469739  0.383519
-0.437167  0.384569  0.813014
-0.629649  0.503475  0.591654
-0.304509  0.333649  0.892162
-0.976145  0.170033  0.135017
-0.990367  0.050525  -0.128918
-0.997784  0.043896  -0.050011
-0.102809  0.301874  0.947788
-0.273886  0.33284  0.902332
-0.970993  0.229995  -0.065382
-0.943666  0.215798  -0.250851
-0.769731  -0.335736  -0.542951
-0.915802  0.000671  -0.401628
0.00681  0.276837  0.960893
0.488717  -0.020639  0.872198
0.131232  0.29965  0.944981
0.6572  -0.35507  0.66484
0.633827  -0.516163  0.576054
0.715095  -0.481755  0.506509
0.709313  -0.570811  0.413583
0.608464  -0.195295  0.769176
0.617378  -0.221317  0.754893
0.409498  -0.819657  -0.400591
0.623961  -0.725109  -0.291357
0.208377  -0.721835  -0.659949
0.709867  -0.686121  0.159146
0.540347  -0.81649  -0.203394
0.669038  -0.74322  -0.003386
-0.152261  -0.641252  -0.752072
-0.434413  -0.523601  -0.73289
-0.726266  -0.307045  -0.61503
-0.951336  0.295033  -0.088965
-0.877111  0.417119  0.238092
-0.68346  0.53185  0.500018
-0.666617  0.500233  0.55262
-0.413421  0.362147  0.835424
-0.45025  0.390606  0.802934
-0.665722  0.633748  0.393926
-0.182582  0.288517  0.939905
-0.913168  0.278017  -0.298046
-0.876217  0.347785  -0.3336
-0.898605  0.215469  -0.382207
0.158877  -0.029843  0.986847
-0.133792  0.248458  0.959358
0.500903  -0.233098  0.833523
0.520465  -0.32478  0.789705
0.49935  -0.384833  0.776243
0.689137  -0.597701  0.409688
0.677431  -0.513117  0.527066
0.585648  -0.370331  0.721021
0.700889  -0.653731  0.285291
0.742403  -0.567097  0.356707
0.822208  -0.414431  0.390155
0.594566  -0.324347  0.735724
0.573508  -0.418357  0.70432
0.25076  -0.799301  -0.546111
0.412673  -0.815326  -0.406135
0.330097  -0.868954  -0.368719
0.343579  -0.813854  -0.46861
0.400353  -0.871869  -0.282066
0.414342  -0.878257  -0.238716
0.324636  -0.834237  -0.445713
-0.092041  -0.723767  -0.683878
0.565293  -0.824684  -0.018444
0.693332  -0.696512  0.184829
-0.479311  -0.648703  -0.591139
-0.876282  0.017463  -0.481482
-0.906407  0.414222  0.082742
-0.931392  0.351898  -0.093154
-0.780004  0.49644  0.380974
-0.699347  0.589518  0.404205
-0.738227  0.518401  0.431603
-0.407099  0.175082  0.896447
-0.800975  0.40363  0.442178
-0.757488  0.47588  0.446934
-0.93757  0.271156  0.217801
-0.941043  0.222813  -0.254544
-0.880546  0.335143  -0.335139
-0.923534  0.137535  -0.358006
0.28517  -0.273395  0.918659
-0.043303  -0.12303  0.991458
0.410955  -0.339025  0.846273
0.50747  -0.401669  0.762323
0.538449  -0.171954  0.824927
0.788909  -0.430652  0.438362
0.738688  -0.216945  0.638182
0.780226  -0.57976  0.234789
0.892846  -0.402736  0.201567
0.967198  -0.129976  0.218252
0.864931  -0.206058  0.45764
0.939646  -0.081125  0.332392
0.598396  -0.474056  0.645905
0.40829  -0.451039  0.793639
0.07259  -0.861241  -0.502986
0.355702  -0.698456  -0.620995
0.143134  -0.910476  -0.388004
0.361614  -0.590321  -0.721635
0.118978  -0.855125  -0.504584
0.264339  -0.723909  -0.637244
0.313536  -0.895636  -0.315487
0.428122  -0.872892  -0.234032
0.25464  -0.612213  -0.748568
0.326295  -0.728293  -0.602596
-0.055739  -0.751175  -0.657745
-0.166084  -0.762927  -0.624787
0.72673  -0.679064  -0.10361
0.792179  -0.609935  0.020779
0.79178  -0.597277  0.127844
-0.635656  -0.573949  -0.51626
-0.8773  -0.228924  -0.421828
-0.915465  0.349602  -0.199256
-0.894462  0.416856  -0.161765
-0.845382  0.533192  0.032165
-0.622931  0.679114  0.388281
-0.837296  0.266525  0.477389
-0.122589  -0.067208  0.990179
-0.587511  0.090926  0.804091
-0.936527  0.222036  0.271326
-0.811182  0.542089  0.21937
-0.903853  0.376781  -0.202696
-0.943513  0.114789  -0.310815
-0.961685  0.227157  -0.153497
0.140665  -0.224441  0.964282
-0.028803  -0.150453  0.988197
0.557709  -0.356679  0.749493
0.592061  -0.565653  0.574021
0.751615  0.071163  0.655752
0.567772  0.238832  0.787778
0.592834  0.101076  0.798957
0.879123  0.047502  0.474221
0.865765  -0.478729  0.145844
0.898326  -0.437997  0.03419
0.982397  -0.172124  0.072587
0.951936  0.18974  0.240451
0.983305  0.070311  0.167835
0.577773  -0.193928  0.792824
0.61561  -0.524946  0.587755
0.183927  -0.064602  0.980815
0.426708  0.074183  0.901342
-0.117933  -0.81304  -0.570139
-0.100946  -0.879563  -0.464951
0.378299  -0.5373  -0.75379
0.264587  -0.591467  -0.761682
-0.247063  -0.787242  -0.564987
0.330741  -0.382986  -0.862515
-0.093197  -0.678508  -0.728657
0.105246  -0.476244  -0.872992
0.335437  -0.852748  -0.400378
0.573379  -0.698372  -0.428385
0.738377  -0.63414  -0.229492
0.474696  -0.480296  -0.73755
0.375457  -0.363992  -0.852374
0.838534  -0.521119  -0.159047
-0.333986  -0.696034  -0.635602
-0.990634  0.133343  -0.029389
-0.98412  -0.069165  -0.163476
-0.586965  -0.499102  -0.637471
-0.923832  -0.138141  -0.357003
-0.869121  0.486567  -0.088775
-0.815816  0.577459  0.031403
-0.527353  0.048524  0.84826
-0.935805  0.094752  0.339544
-0.94957  0.307149  -0.063065
-0.734122  0.651861  0.190112
-0.84294  0.532852  -0.074296
-0.678809  0.691115  0.24815
-0.922229  0.330935  -0.199942
-0.852919  0.498628  -0.154594
-0.804002  0.588758  0.08333
-0.869635  0.449214  -0.204796
-0.840498  0.419566  -0.342822
-0.975831  0.081891  -0.2026
-0.989876  0.134961  -0.043938
-0.110655  -0.048633  0.992668
0.680338  -0.303961  0.666894
0.763999  0.537099  0.357532
0.692252  0.406484  0.596287
0.535001  0.727229  0.430013
0.422718  0.538362  0.729024
0.667448  0.178504  0.722945
0.525909  0.525126  0.669076
0.895685  0.317939  0.310906
0.939486  -0.338972  0.049631
0.989774  0.043348  0.135901
0.994716  -0.094935  -0.03907
0.996146  -0.043236  0.076316
0.918194  0.362195  0.160418
0.607344  0.791576  0.067383
-0.068696  0.155558  0.985435
0.146402  0.258078  0.954967
0.440951  0.365774  0.819617
0.647213  0.401438  0.648045
-0.255966  -0.764581  -0.591521
0.230776  -0.372571  -0.898851
0.295942  -0.346457  -0.89016
-0.548456  -0.47  -0.69159
0.224319  -0.146558  -0.963432
0.218291  -0.246611  -0.94421
-0.271819  -0.490074  -0.828216
-0.195827  -0.233684  -0.952388
0.678937  -0.400919  -0.615068
0.492493  0.051663  -0.868782
0.400289  0.406432  -0.821329
0.295687  -0.241516  -0.924251
0.380764  0.187019  -0.905562
0.819385  -0.225642  -0.526967
0.968391  -0.171028  -0.181572
-0.821313  -0.183907  -0.540022
-0.993059  0.114599  -0.026478
-0.941087  0.178393  -0.287282
-0.369341  0.178389  0.912011
-0.795617  0.167048  0.582313
-0.668614  0.327672  0.667523
-0.913596  0.308244  0.265194
-0.928083  0.349564  -0.128327
-0.934274  0.356395  0.010759
-0.957129  0.286079  0.04542
-0.705697  0.66961  0.231546
-0.842099  0.532361  0.086382
-0.943522  0.329826  -0.031325
-0.875846  0.463502  -0.134387
-0.834472  0.531747  0.144574
-0.834733  0.535079  0.130044
-0.830484  0.520171  -0.199295
-0.808488  0.588147  -0.02074
-0.836261  0.479283  -0.266373
0.395892  0.918282  -0.005266
0.374078  0.881293  0.28877
0.552965  0.730707  0.400372
0.967195  0.253589  -0.015061
0.964383  0.035324  -0.262142
0.910315  0.219895  -0.350675
0.613079  0.789921  -0.012658
0.525177  0.850958  -0.007651
0.25227  0.961629  -0.107837
0.375955  0.919911  -0.111453
-0.326465  0.464499  0.823202
0.126864  0.556692  0.820975
0.541593  0.672486  0.50442
0.240729  0.229438  -0.943084
-0.576367  -0.254521  -0.776544
-0.837276  0.026351  -0.546145
0.148935  -0.076199  -0.985907
0.170413  0.196369  -0.965608
-0.60797  -0.019482  -0.793721
-0.130211  0.134527  -0.982317
0.480252  0.255738  -0.839021
0.233564  0.638603  -0.733236
0.215759  0.738977  -0.638249
0.427869  0.591107  -0.683755
0.872403  0.129038  -0.471447
0.714727  0.213061  -0.666161
-0.920466  0.389462  0.032602
-0.938583  0.337906  -0.069866
-0.760434  0.516515  0.39364
-0.869039  0.471674  0.149312
-0.943279  0.25283  -0.21518
-0.927901  0.241309  -0.2842
-0.759974  0.616097  0.207035
-0.844704  0.535006  -0.015603
-0.911283  0.406029  0.068586
-0.956274  0.272268  -0.106815
-0.916274  0.363157  -0.168993
-0.918006  0.393063  0.052586
-0.821089  0.564463  0.084814
-0.909086  0.405778  -0.094379
0.409772  0.900596  -0.144962
0.395972  0.917346  -0.041023
0.355258  0.891617  0.280733
0.444341  0.895804  -0.009845
0.316201  0.935233  0.159238
0.319046  0.898885  0.300359
0.584373  0.78265  0.214399
0.564389  0.699466  -0.438421
0.312489  0.921408  -0.230995
0.622036  0.474624  -0.622739
0.37722  0.694025  -0.613217
0.097114  0.939114  -0.329596
0.272663  0.938485  -0.211897
0.510841  0.859444  -0.019931
-0.561859  0.668792  0.486859
-0.24219  0.783261  0.572579
0.105823  0.860108  0.499016
0.261477  0.635357  -0.726603
0.217451  0.565429  -0.795616
0.405079  0.609442  -0.681536
-0.865878  0.189356  -0.463033
0.066145  0.574715  -0.815676
-0.58932  0.257192  -0.765868
-0.233734  0.383819  -0.893337
0.48859  0.521602  -0.699436
0.205302  0.727486  -0.654687
0.36996  0.760498  -0.53364
0.376092  0.671063  -0.638928
0.150801  0.780231  -0.60704
-0.824499  0.537364  -0.177316
-0.965905  0.111611  -0.233603
-0.224607  0.841722  0.490975
-0.924299  0.309623  -0.22317
-0.40132  0.88227  0.246054
-0.643453  0.764692  0.034848
-0.903028  0.405665  -0.141337
-0.801839  0.58824  -0.105012
-0.901139  0.408563  -0.144996
-0.831788  0.540022  -0.12847
-0.670896  0.689311  -0.273403
-0.799897  0.583107  -0.141955
-0.807038  0.572615  -0.144232
0.468319  0.881175  0.064865
0.217174  0.974351  0.058962
-0.126389  0.974956  0.182995
-0.016101  0.957339  0.288518
0.161658  0.845626  -0.508708
-0.080933  0.896721  -0.435134
0.491228  0.817912  -0.299525
0.618114  0.78508  0.03981
0.584599  0.804539  0.104694
0.357187  0.931641  0.066804
0.377281  0.595939  -0.708883
0.42959  0.671137  -0.604176
-0.465658  0.614839  -0.636503
-0.663033  0.636121  -0.394636
-0.280063  0.806029  -0.521424
0.409377  0.614442  -0.674442
0.57091  0.509996  -0.643402
0.450132  0.662739  -0.598464
-0.735817  0.676339  -0.033749
-0.662338  0.71767  -0.215077
-0.180242  0.983205  0.028636
-0.277951  0.959333  0.04922
-0.444996  0.874693  -0.192068
-0.656356  0.72247  -0.217333
-0.575427  0.782911  -0.236504
-0.555885  0.623011  -0.550318
-0.598528  0.778531  -0.188823
-0.464856  0.679165  -0.568017
0.336127  0.934234  0.119272
0.735933  0.493406  -0.46363
0.78157  0.623552  -0.018198
0.355731  0.926835  -0.120132
0.064743  0.997685  -0.020828
-0.059172  0.975344  -0.212611
0.656397  0.452502  -0.603643
0.483477  0.294824  -0.824214
0.107223  0.496633  -0.861312
0.580134  0.639406  -0.504583
-0.29627  0.943625  -0.147636
-0.527602  0.771955  -0.354571
-0.037685  0.959752  -0.278308
-0.207636  0.87652  -0.434282
-0.215994  0.804335  -0.553526
-0.105876  0.945918  -0.306641
0.939047  0.314388  -0.139111
0.57555  0.769248  -0.277488
0.201433  0.699844  -0.685305
		</DataArray>
	</PointData>
	<Points>
		<DataArray type="Float32" NumberOfComponents="3" format="ascii">
0.034979  -0.086307  0.046386
0.035015  -0.085894  0.046828
0.0355  -0.086008  0.046711
0.03546  -0.086432  0.046276
0.034293  -0.08575  0.046248
0.035017  -0.08647  0.045796
0.034591  -0.086298  0.045534
0.035365  -0.085543  0.047297
0.035126  -0.085078  0.047372
0.034478  -0.084394  0.047157
0.03457  -0.085646  0.046865
0.036001  -0.085924  0.046819
0.03621  -0.085995  0.046341
0.035527  -0.086499  0.045628
0.033985  -0.084874  0.046256
0.034232  -0.085899  0.045137
0.033861  -0.085249  0.045278
0.035218  -0.086432  0.045208
0.035824  -0.086264  0.044967
0.034355  -0.085592  0.044206
0.034899  -0.086175  0.044597
0.035607  -0.085065  0.047523
0.035091  -0.084414  0.047496
0.034124  -0.08336  0.046551
0.03558  -0.083587  0.047681
0.034704  -0.083864  0.047319
0.036499  -0.084918  0.047241
0.036233  -0.08548  0.047065
0.036632  -0.085391  0.046659
0.036811  -0.085114  0.046099
0.036349  -0.085846  0.045554
0.033739  -0.084669  0.044987
0.033953  -0.085226  0.044577
0.036414  -0.085661  0.045085
0.035926  -0.086063  0.044503
0.035358  -0.086074  0.044249
0.033939  -0.084713  0.044121
0.034937  -0.085798  0.043895
0.035179  -0.085511  0.043512
0.034392  -0.084689  0.043402
0.034736  -0.08514  0.043438
0.035555  -0.084456  0.04768
0.036043  -0.084656  0.047647
0.033941  -0.083419  0.045622
0.034187  -0.08277  0.045998
0.034417  -0.082536  0.046922
0.034333  -0.082095  0.046411
0.035979  -0.083998  0.047742
0.035399  -0.082856  0.047573
0.036294  -0.082499  0.047489
0.036418  -0.083332  0.047627
0.03477  -0.082959  0.047333
0.03667  -0.084404  0.047351
0.036902  -0.084747  0.046762
0.036691  -0.084961  0.04475
0.037072  -0.083399  0.045303
0.037014  -0.084552  0.046316
0.033774  -0.084063  0.04446
0.033765  -0.083777  0.044969
0.036443  -0.08556  0.044463
0.035779  -0.085811  0.043952
0.036032  -0.08517  0.043508
0.033912  -0.084002  0.043775
0.034374  -0.084078  0.043203
0.035023  -0.08458  0.042852
0.035629  -0.084928  0.043095
0.033952  -0.083263  0.045096
0.033881  -0.083139  0.044506
0.034431  -0.081609  0.045674
0.03474  -0.080745  0.044827
0.034243  -0.082227  0.044556
0.034518  -0.081568  0.044952
0.035071  -0.082279  0.047439
0.034745  -0.081796  0.046983
0.034659  -0.081231  0.046371
0.035569  -0.082201  0.047551
0.036243  -0.081669  0.047353
0.036703  -0.082187  0.047279
0.036844  -0.083306  0.047311
0.037025  -0.082936  0.046782
0.036926  -0.083808  0.04709
0.037058  -0.083508  0.046569
0.036762  -0.084281  0.044358
0.03671  -0.084783  0.044264
0.037208  -0.082644  0.045539
0.038032  -0.080897  0.044069
0.037621  -0.08209  0.044319
0.037271  -0.083009  0.044381
0.036304  -0.084249  0.043565
0.03595  -0.084508  0.043069
0.034045  -0.083286  0.043259
0.034041  -0.08256  0.043942
0.034125  -0.082293  0.042814
0.034686  -0.0838  0.042516
0.034343  -0.083379  0.042513
0.035383  -0.084287  0.042602
0.035762  -0.083555  0.042334
0.036152  -0.083698  0.042923
0.036448  -0.082074  0.041818
0.034816  -0.080256  0.044902
0.034691  -0.080671  0.045761
0.034588  -0.080941  0.043659
0.034168  -0.081987  0.043364
0.035376  -0.081088  0.047071
0.035063  -0.080422  0.046241
0.036687  -0.081457  0.046969
0.035839  -0.081135  0.047258
0.036462  -0.080959  0.047029
0.037031  -0.082052  0.046747
0.037091  -0.082462  0.046021
0.036807  -0.083682  0.043819
0.037503  -0.08149  0.045194
0.03775  -0.081418  0.043114
0.037841  -0.080392  0.044951
0.038149  -0.08041  0.044143
0.038144  -0.080796  0.043454
0.037435  -0.082099  0.043326
0.034619  -0.082823  0.041919
0.034309  -0.081629  0.042407
0.034453  -0.082303  0.042025
0.034884  -0.083305  0.04189
0.035822  -0.082582  0.04166
0.035242  -0.083013  0.041639
0.036596  -0.082625  0.042463
0.037113  -0.08213  0.042588
0.037286  -0.080669  0.041184
0.036422  -0.08144  0.041336
0.03523  -0.082281  0.041333
0.035655  -0.081619  0.041204
0.034939  -0.079337  0.044136
0.034712  -0.080255  0.044088
0.034991  -0.079592  0.044828
0.035085  -0.079955  0.045463
0.034677  -0.079906  0.043097
0.034735  -0.080367  0.042279
0.034435  -0.08113  0.042502
0.035381  -0.079669  0.046004
0.035266  -0.080615  0.04672
0.035868  -0.08048  0.047021
0.037096  -0.081435  0.046242
0.036863  -0.079762  0.04598
0.037095  -0.080698  0.045946
0.036468  -0.08022  0.046735
0.037455  -0.080991  0.045457
0.037902  -0.080871  0.042492
0.038631  -0.079744  0.042961
0.038721  -0.079104  0.043583
0.03816  -0.07881  0.044625
0.039177  -0.078375  0.043037
0.034787  -0.081725  0.041475
0.034792  -0.081212  0.041585
0.034996  -0.080176  0.041842
0.03836  -0.079229  0.040924
0.036945  -0.080405  0.040814
0.035776  -0.081065  0.041218
0.036405  -0.080045  0.0406
0.035097  -0.081451  0.041187
0.035053  -0.07908  0.044605
0.034736  -0.079264  0.043442
0.035145  -0.078121  0.043907
0.03542  -0.079211  0.045212
0.035342  -0.078739  0.04483
0.034851  -0.078988  0.042334
0.034769  -0.079831  0.042434
0.035065  -0.079412  0.041598
0.035775  -0.079812  0.04659
0.035927  -0.079207  0.045948
0.036356  -0.07937  0.046203
0.03588  -0.078767  0.045243
0.037366  -0.078822  0.045287
0.037029  -0.079105  0.045556
0.038751  -0.079233  0.041773
0.039173  -0.078666  0.042518
0.038915  -0.077459  0.04384
0.039215  -0.07719  0.043543
0.040132  -0.076257  0.042553
0.038425  -0.07776  0.044342
0.037553  -0.078329  0.045044
0.039704  -0.077518  0.04245
0.035291  -0.080945  0.041332
0.035585  -0.080524  0.041278
0.03538  -0.080019  0.041352
0.038646  -0.077909  0.039623
0.03882  -0.078169  0.040149
0.039223  -0.078258  0.041014
0.037541  -0.079407  0.040235
0.038041  -0.078982  0.040234
0.037082  -0.079994  0.040551
0.037144  -0.079117  0.039908
0.03615  -0.078967  0.04008
0.035238  -0.077468  0.043912
0.035417  -0.07671  0.043803
0.035585  -0.078144  0.044714
0.03492  -0.077917  0.043444
0.034841  -0.07848  0.042432
0.034808  -0.078385  0.043093
0.036303  -0.078067  0.044921
0.034873  -0.078461  0.041665
0.035031  -0.077859  0.040891
0.035384  -0.07928  0.041059
0.036516  -0.07872  0.045387
0.037147  -0.078026  0.045075
0.03927  -0.078529  0.041968
0.040312  -0.076569  0.041875
0.038653  -0.075949  0.044089
0.040439  -0.0757  0.042388
0.040916  -0.075615  0.04168
0.039341  -0.075377  0.043565
0.038093  -0.076616  0.044457
0.037477  -0.077305  0.044781
0.03951  -0.077077  0.039453
0.038393  -0.07777  0.039208
0.037763  -0.078804  0.039831
0.039612  -0.077896  0.041517
0.040003  -0.077121  0.040521
0.039592  -0.077589  0.040451
0.040436  -0.076585  0.040852
0.037775  -0.07827  0.039345
0.037332  -0.078648  0.03958
0.036666  -0.078404  0.039523
0.03533  -0.078564  0.040719
0.036105  -0.078248  0.039747
0.03507  -0.076779  0.043072
0.035383  -0.076216  0.043298
0.035867  -0.076991  0.044381
0.035861  -0.075984  0.04376
0.036296  -0.077332  0.044618
0.03488  -0.077357  0.042999
0.034889  -0.077573  0.041638
0.034842  -0.077742  0.042138
0.036987  -0.076911  0.04463
0.03661  -0.076541  0.044448
0.034965  -0.076841  0.042145
0.035097  -0.077188  0.040734
0.035405  -0.077943  0.040225
0.035239  -0.07746  0.040262
0.037455  -0.076526  0.044557
0.038908  -0.075036  0.043923
0.038435  -0.075449  0.044155
0.040966  -0.07489  0.042239
0.041672  -0.073962  0.042187
0.041588  -0.074681  0.041585
0.042208  -0.07448  0.040936
0.039752  -0.074624  0.043336
0.039674  -0.074046  0.04349
0.039526  -0.076272  0.037962
0.040193  -0.076499  0.03923
0.037894  -0.077574  0.038705
0.041352  -0.075572  0.040573
0.040751  -0.076089  0.039179
0.040984  -0.075991  0.040144
0.037106  -0.077856  0.038932
0.036386  -0.077847  0.039304
0.035636  -0.077405  0.039594
0.035243  -0.076068  0.041939
0.035262  -0.075911  0.042479
0.035745  -0.075594  0.043137
0.036306  -0.075531  0.043803
0.036618  -0.075779  0.044196
0.036902  -0.07501  0.043984
0.036569  -0.074657  0.04297
0.037332  -0.075743  0.044329
0.03556  -0.07583  0.040782
0.035636  -0.076286  0.040119
0.035512  -0.076868  0.039733
0.038455  -0.07456  0.04413
0.037915  -0.074889  0.044206
0.039161  -0.074277  0.043897
0.041047  -0.074249  0.042518
0.041749  -0.073406  0.042543
0.042603  -0.073703  0.041225
0.042479  -0.073465  0.041873
0.042156  -0.07315  0.042381
0.04234  -0.074597  0.040412
0.042638  -0.074145  0.040726
0.043144  -0.073257  0.040875
0.040074  -0.073761  0.043293
0.039597  -0.073382  0.043958
0.038453  -0.076737  0.037909
0.039317  -0.075742  0.036471
0.038998  -0.076153  0.037207
0.04007  -0.075395  0.03656
0.040101  -0.075985  0.037936
0.041104  -0.075668  0.038408
0.040827  -0.075239  0.036707
0.037508  -0.077289  0.03837
0.041993  -0.075247  0.03865
0.042458  -0.074697  0.039856
0.036632  -0.077146  0.03854
0.035798  -0.076749  0.039167
0.035413  -0.075481  0.042197
0.03551  -0.07529  0.041741
0.035731  -0.075204  0.04272
0.036091  -0.074233  0.042069
0.036645  -0.074789  0.043548
0.037593  -0.07422  0.043992
0.037048  -0.074317  0.043624
0.036875  -0.074044  0.042483
0.037041  -0.074218  0.042992
0.0358  -0.075143  0.040419
0.036005  -0.076083  0.039571
0.035947  -0.075717  0.039946
0.039091  -0.073719  0.044082
0.03826  -0.074056  0.04422
0.041207  -0.073485  0.042776
0.040525  -0.073405  0.04309
0.041864  -0.072311  0.04283
0.042924  -0.073225  0.041376
0.042599  -0.072765  0.042142
0.042883  -0.074089  0.040172
0.043291  -0.073337  0.040334
0.043432  -0.072841  0.040427
0.043071  -0.0727  0.041448
0.043347  -0.072585  0.040875
0.039969  -0.073387  0.043608
0.039848  -0.072873  0.044166
0.038253  -0.076492  0.037448
0.040103  -0.075076  0.036122
0.038554  -0.07619  0.036726
0.039314  -0.075263  0.035711
0.038669  -0.075942  0.036234
0.038953  -0.075611  0.035861
0.041014  -0.075543  0.037794
0.041803  -0.075199  0.037598
0.040994  -0.074699  0.036073
0.041515  -0.074668  0.036179
0.037668  -0.076665  0.037716
0.037051  -0.076968  0.038091
0.04246  -0.074925  0.038105
0.042557  -0.074797  0.038884
0.042954  -0.074283  0.039256
0.036501  -0.076605  0.037882
0.036231  -0.076717  0.03846
0.036161  -0.076058  0.038941
0.036196  -0.073996  0.040982
0.036009  -0.074099  0.041495
0.036723  -0.073492  0.041842
0.037506  -0.073488  0.043534
0.038369  -0.073543  0.044257
0.03789  -0.073552  0.044104
0.037325  -0.073449  0.042781
0.03705  -0.073126  0.04172
0.036213  -0.074156  0.039802
0.036278  -0.074943  0.039213
0.03643  -0.075608  0.038847
0.039336  -0.07285  0.044337
0.038794  -0.073074  0.044312
0.041181  -0.072645  0.043138
0.040597  -0.072868  0.043457
0.042558  -0.071736  0.04231
0.041922  -0.071407  0.042836
0.041349  -0.071638  0.043176
0.04292  -0.072029  0.041824
0.043182  -0.073855  0.039512
0.043264  -0.073919  0.038489
0.043533  -0.072795  0.039712
0.043288  -0.071726  0.040788
0.043464  -0.072165  0.040223
0.040295  -0.072332  0.044178
0.040388  -0.072798  0.043936
0.039653  -0.07212  0.044413
0.040092  -0.071854  0.044279
0.03727  -0.076442  0.037441
0.038019  -0.076245  0.036944
0.039784  -0.074823  0.035735
0.04037  -0.074441  0.035667
0.037823  -0.075929  0.036421
0.039364  -0.074563  0.035354
0.03835  -0.075603  0.035819
0.038686  -0.075003  0.035309
0.041606  -0.075024  0.036814
0.042521  -0.074516  0.037005
0.042368  -0.074893  0.037574
0.042002  -0.074314  0.036214
0.041442  -0.074105  0.035763
0.043153  -0.074033  0.037469
0.036909  -0.076142  0.037134
0.036246  -0.07583  0.038432
0.036239  -0.076122  0.03791
0.036949  -0.075535  0.036612
0.036475  -0.075582  0.037285
0.036547  -0.073582  0.040215
0.036436  -0.073545  0.040914
0.038101  -0.072537  0.044186
0.03742  -0.07268  0.043356
0.037486  -0.072235  0.042543
0.037279  -0.072763  0.041084
0.037395  -0.072624  0.041841
0.036826  -0.073066  0.041
0.036519  -0.074257  0.038847
0.037171  -0.073308  0.038322
0.037089  -0.072575  0.040291
0.036602  -0.073439  0.039509
0.036946  -0.073352  0.03889
0.036388  -0.074748  0.038765
0.036526  -0.075033  0.038269
0.038949  -0.072163  0.044424
0.040832  -0.072415  0.043698
0.042769  -0.071206  0.041666
0.042363  -0.071227  0.042395
0.041978  -0.070792  0.042327
0.041591  -0.070951  0.042813
0.040935  -0.071806  0.043641
0.040842  -0.071106  0.043269
0.043127  -0.071601  0.041271
0.043415  -0.073348  0.038521
0.043512  -0.071921  0.039656
0.043559  -0.072482  0.038662
0.04356  -0.07227  0.039253