<?xml version="1.0"?>
<VTKFile type="PolyData" version="0.1" byte_order="LittleEndian" compressor="vtkZLibDataCompressor">
	<PolyData>
		<Piece NumberOfPoints="1485" NumberOfVerts="0" NumberOfLines="0" NumberOfStrips="0" NumberOfPolys="3006">
		<PointData Normals="Normals">
		<DataArray type="Float32" Name="Normals" NumberOfComponents="3" format="ascii">
-0.844773  -0.451578  0.287116
-0.735819  -0.675602  0.046171
-0.708004  -0.705084  -0.039825
-0.78985  -0.609151  0.071225
-0.688056  -0.590855  0.421272
-0.753861  -0.388448  0.529907
-0.718095  -0.695889  -0.008832
-0.738091  -0.673874  0.033408
-0.703465  -0.70735  0.069222
-0.924609  -0.012598  0.380709
-0.719153  -0.682793  0.128892
-0.892381  -0.445698  0.070773
-0.513933  -0.119983  0.849398
-0.787258  -0.123295  0.604172
-0.877482  -0.017238  0.4793
-0.743813  -0.666572  0.049233
-0.70522  -0.697882  0.124997
-0.644914  -0.75602  0.111894
-0.73691  -0.646952  0.196004
-0.915743  0.327472  0.232759
-0.955638  -0.286284  0.069265
-0.563471  -0.700795  0.437477
-0.331523  -0.495379  0.802927
-0.658019  0.239939  0.713751
-0.845621  0.195594  0.496656
-0.807974  0.274498  0.521372
-0.775525  0.310824  0.549499
-0.852915  0.240737  0.463229
-0.813182  -0.581995  -0.004083
-0.779052  -0.625766  0.038653
-0.73031  -0.68306  0.008721
-0.675479  -0.73727  -0.012674
-0.710287  0.513993  0.480941
-0.805517  0.373642  0.459928
-0.525084  -0.845093  -0.10052
-0.674389  -0.732773  0.090797
-0.92726  -0.374198  0.012851
-0.901887  0.430624  0.034091
-0.993929  -0.10874  -0.016744
-0.066365  -0.307532  0.949221
-0.16995  -0.143973  0.974879
-0.291196  -0.719726  0.630237
-0.193122  -0.573147  0.796371
-0.232202  0.168802  0.957908
-0.294884  0.415848  0.860299
-0.700065  0.502845  0.507006
-0.713463  0.52724  0.461506
-0.716407  -0.689809  -0.10452
-0.411503  -0.910633  0.037598
-0.50995  -0.823889  0.2473
-0.473394  -0.8348  -0.281083
-0.554045  -0.812171  -0.182794
-0.54099  0.781859  0.309882
-0.404985  -0.836155  -0.369909
-0.693897  -0.71481  -0.086912
-0.381019  -0.825502  -0.416378
-0.594818  -0.748821  -0.292333
-0.883414  -0.441506  -0.157008
-0.552488  0.809852  0.197221
-0.939056  0.342717  0.026831
-0.954702  -0.262035  -0.141002
-0.958424  0.227236  0.172587
0.039968  0.145567  0.988541
0.120811  -0.37064  0.920886
-0.122447  0.34204  0.931674
-0.457866  0.550214  0.6983
-0.366304  0.755893  0.54263
-0.586494  0.700998  0.405741
-0.434275  -0.872982  -0.222054
-0.029459  -0.973368  0.227348
-0.078358  -0.887444  0.454205
-0.242284  -0.929261  0.278876
-0.27199  -0.88655  -0.374233
-0.335898  -0.845815  -0.41445
-0.360597  0.921829  0.142133
-0.29432  0.955098  0.034098
-0.353527  0.935342  0.012394
-0.158706  -0.835276  -0.526428
-0.294817  -0.827614  -0.477639
-0.134753  -0.834023  -0.535021
-0.484934  -0.727087  -0.485987
-0.398116  -0.778634  -0.485008
-0.722988  -0.601554  -0.339737
-0.931658  -0.301246  -0.203137
-0.857735  -0.430288  -0.281324
-0.52602  0.846267  0.084466
-0.837298  0.499187  0.223033
-0.967342  0.084716  0.238899
-0.678812  0.571469  0.461127
0.161664  0.101141  0.981649
0.247847  -0.46933  0.847526
0.356958  -0.648773  0.672068
0.058305  -0.771123  0.634011
-0.032748  0.433713  0.900456
0.147113  0.424577  0.89336
-0.01548  0.521471  0.853129
-0.191522  0.619362  0.761387
-0.07423  0.720403  0.689572
-0.058116  0.791994  0.607757
-0.470405  0.853021  0.225996
-0.218397  0.839036  0.498318
-0.357092  0.90852  0.216971
0.036749  -0.996763  -0.071509
-0.122813  -0.925433  -0.358456
-0.131332  -0.892083  -0.432365
-0.086046  -0.895809  -0.436031
-0.181966  -0.862323  -0.472533
-0.256972  0.966363  0.010419
-0.286398  0.893457  0.345992
-0.427364  0.847754  0.314124
-0.581384  0.784411  0.216083
0.009724  -0.84776  -0.530291
0.061359  -0.807554  -0.586593
-0.011217  -0.867745  -0.496882
-0.071026  -0.870507  -0.487005
-0.270061  -0.836536  -0.476734
-0.318542  -0.810749  -0.491139
-0.632981  -0.664684  -0.3969
-0.612893  -0.729445  -0.303762
-0.349563  -0.808044  -0.474204
-0.431123  -0.814604  -0.388012
-0.794897  -0.52421  -0.305521
-0.693974  0.64157  0.326784
-0.932082  -0.360654  -0.033939
-0.976774  -0.17037  0.129945
-0.958782  -0.074525  0.274197
-0.747904  0.46358  0.475115
-0.764689  0.39083  0.51235
0.241093  0.159214  0.957353
0.361884  -0.295567  0.884127
0.317334  0.037684  0.947565
0.566768  -0.709093  0.419477
0.611943  -0.446704  0.652673
0.312526  -0.893987  0.321114
0.125621  -0.915528  0.382137
0.364566  0.344246  0.865209
-0.027326  0.619588  0.784451
0.127814  0.614252  0.77869
0.135927  0.730007  0.669786
0.007173  0.859242  0.51152
-0.182869  0.917278  0.353779
0.171035  -0.945907  -0.275695
0.31  -0.942877  0.121992
-0.337392  0.935242  -0.107183
-0.305657  0.951821  0.02471
-0.311812  0.912827  0.263666
-0.183454  0.803017  0.567017
-0.19859  0.907991  0.368937
-0.394367  0.755051  0.523806
-0.515779  0.776068  0.362892
0.160186  -0.805324  -0.570784
0.013092  -0.865423  -0.50087
0.077412  -0.83343  -0.547177
0.1104  -0.839208  -0.532487
0.125424  -0.853253  -0.506189
0.186909  -0.822283  -0.537509
-0.276506  -0.839419  -0.46789
-0.78052  -0.582997  -0.225615
-0.493354  -0.79725  -0.347842
-0.644286  -0.712801  -0.277148
-0.74786  -0.636558  -0.18841
-0.324391  -0.841871  -0.431304
-0.327964  -0.845895  -0.420597
-0.88323  -0.466167  0.05092
-0.931617  -0.182384  0.314367
-0.88058  0.170033  0.442343
-0.541051  0.607127  0.581945
-0.71002  0.467501  0.526606
-0.444932  0.666601  0.598063
0.521473  -0.055212  0.85148
0.606937  -0.709059  0.358975
0.620098  -0.516581  0.590443
0.601076  -0.190193  0.776231
0.261472  0.549717  0.793374
0.18527  0.344025  0.920501
0.232713  0.643848  0.728906
-0.073715  0.868925  0.489424
-0.184467  0.662743  0.725771
-0.069856  0.609654  0.789584
-0.073164  0.944736  0.319564
-0.259121  0.965734  -0.014658
0.417745  -0.908563  -0.001322
0.486363  -0.868722  0.093661
-0.316433  0.948609  -0.00322
-0.046837  0.875685  0.480606
-0.380556  0.68828  0.617614
0.186283  -0.878206  -0.440514
0.505135  -0.786461  -0.355412
0.400314  -0.784188  -0.474129
0.231782  -0.776597  -0.58581
0.2215  -0.807045  -0.547372
0.249319  -0.804475  -0.53913
0.262949  -0.80977  -0.524529
0.276442  -0.772563  -0.5716
0.372563  -0.736621  -0.564435
-0.037473  -0.843451  -0.535897
0.117864  -0.803813  -0.583088
-0.156175  -0.842344  -0.515816
-0.45198  -0.788982  -0.4162
-0.591152  -0.743386  -0.312917
-0.370326  -0.818814  -0.438636
-0.360312  -0.820682  -0.443458
-0.674195  -0.702976  -0.226464
-0.212486  -0.827781  -0.519257
-0.936306  -0.237893  0.258338
-0.856221  -0.516079  0.023414
-0.848868  0.214215  0.483254
-0.55642  0.580009  0.594968
0.340895  0.10324  0.934415
0.559685  -0.826969  0.053625
0.501934  -0.799123  0.330853
0.432003  -0.56347  0.704183
0.416952  -0.267865  0.868562
0.418075  -0.082736  0.904637
0.117879  0.555318  0.823241
-0.449538  0.714529  0.536064
0.489612  -0.856843  -0.161554
-0.260914  0.963471  -0.060392
-0.108679  0.973932  0.19911
-0.053662  0.832055  0.552091
-0.135103  0.754388  0.642375
-0.253225  0.718244  0.648076
-0.470607  0.644696  0.602409
0.291571  -0.900606  -0.322329
0.236133  -0.807138  -0.541082
0.185711  -0.786228  -0.589369
0.270179  -0.773461  -0.573377
0.379383  -0.741389  -0.553544
0.329985  -0.742153  -0.583369
0.380089  -0.724001  -0.575635
0.504949  -0.629537  -0.590517
0.544398  -0.608831  -0.577023
0.499099  -0.646412  -0.577106
-0.429597  -0.794207  -0.429747
-0.374207  -0.801963  -0.465645
-0.333656  -0.807724  -0.486062
-0.546153  -0.754682  -0.363553
-0.685917  -0.676689  -0.2676
-0.237459  -0.821638  -0.518193
-0.527917  0.593576  0.60743
-0.667185  0.514145  0.538998
-0.890455  0.057255  0.451456
-0.524557  0.609293  0.594644
0.481314  -0.876534  0.005046
0.294518  -0.840118  0.455477
0.216803  -0.509293  0.832837
0.16538  -0.233409  0.958212
-0.033621  0.056604  0.99783
-0.230139  0.378419  0.896569
-0.283778  0.925882  0.249424
-0.585414  0.791773  0.174315
-0.471875  0.628784  0.618032
-0.524275  0.602455  0.601817
-0.396238  0.48801  0.777716
-0.352896  0.436272  0.827726
0.548144  -0.822028  -0.154296
-0.399653  0.916618  0.009459
-0.288488  0.954717  -0.072733
-0.253277  0.966597  0.039246
-0.110096  0.744772  0.658174
-0.206025  0.726392  0.655674
-0.199138  0.715069  0.67009
-0.20238  0.699907  0.684962
-0.32096  0.679264  0.659989
0.293384  -0.942014  -0.162899
0.163549  -0.877028  -0.451744
0.134022  -0.962939  -0.234066
0.211849  -0.750219  -0.626332
0.468088  -0.642079  -0.607148
0.234756  -0.77645  -0.58482
0.319288  -0.728142  -0.606518
0.706498  -0.442107  -0.552632
-0.076097  -0.815953  -0.573088
0.177116  -0.776618  -0.604561
0.074172  -0.798199  -0.59781
-0.590454  -0.721193  -0.362277
-0.322118  -0.814361  -0.482759
-0.257977  -0.822354  -0.507132
-0.308343  -0.815937  -0.489052
-0.380151  -0.801186  -0.462153
-0.613466  -0.725307  -0.312393
-0.221039  -0.822674  -0.523783
-0.880279  -0.473758  0.025736
-0.721784  -0.648111  -0.242858
-0.086755  -0.825039  -0.558377
-0.899097  -0.435681  0.042496
-0.526376  0.577787  0.623771
-0.397142  0.62771  0.669521
-0.535924  0.496866  0.682576
-0.59383  0.425173  0.683077
0.261766  -0.963546  0.055295
0.287915  -0.90786  0.304786
0.288989  -0.801637  0.52332
0.218459  -0.659905  0.718889
0.085703  -0.408137  0.908889
-0.1509  -0.075307  0.985676
-0.285199  0.179285  0.941551
-0.590236  0.703423  0.396002
-0.525  0.845524  -0.097286
-0.495094  0.867894  0.040519
-0.505457  0.823776  0.256721
-0.500241  0.482287  0.719137
-0.402844  0.785264  0.470189
-0.260091  0.737251  0.623549
-0.446545  0.451728  0.772359
-0.326514  0.640511  0.695079
-0.464202  0.352242  0.812676
-0.393799  0.34357  0.852574
-0.393289  0.430544  0.812377
-0.439529  0.898102  0.015089
-0.151842  0.924773  0.348912
-0.240749  0.751508  0.614228
-0.19366  0.710565  0.676456
-0.243533  0.712875  0.657648
-0.171048  0.716094  0.676721
-0.1616  0.72454  0.67002
-0.216188  0.709031  0.671221
-0.28422  0.685531  0.670273
0.152402  -0.980973  -0.120272
0.307882  -0.747336  -0.588811
0.482117  -0.643266  -0.594788
0.293186  -0.715969  -0.633586
0.466636  -0.594348  -0.654982
0.655678  -0.471082  -0.590058
0.626565  -0.51905  -0.58138
0.513558  -0.598396  -0.614964
0.186004  -0.764819  -0.61681
0.403603  -0.670712  -0.622294
0.768182  -0.342536  -0.540893
0.906337  -0.157328  -0.392174
0.783452  -0.364286  -0.503486
0.789938  -0.289563  -0.540511
-0.107344  -0.816252  -0.567636
0.031308  -0.806199  -0.590815
-0.168155  -0.818775  -0.548937
-0.203203  -0.80904  -0.55151
-0.816188  -0.562686  -0.13123
-0.544468  -0.75593  -0.36349
-0.647548  -0.700103  -0.300894
-0.695888  -0.68133  -0.227
-0.877122  -0.480254  0.003761
-0.897694  -0.430827  0.092379
-0.904184  -0.425755  0.034406
-0.462221  0.591404  0.660752
-0.389643  0.621639  0.679518
-0.251149  0.607223  0.753794
-0.764783  0.111567  0.634555
-0.436119  0.40637  0.80291
-0.312587  0.514767  0.798314
0.287389  -0.932156  0.220211
0.321092  -0.768989  0.552771
0.227265  -0.537014  0.812384
0.254526  -0.243803  0.935829
-0.261449  0.111776  0.958723
-0.070009  0.005224  0.997533
-0.196609  0.217783  0.955989
-0.400514  0.914941  0.049706
-0.555421  0.827577  0.081385
-0.368173  0.887399  0.277438
-0.144718  0.886576  0.439362
-0.192037  0.631595  0.751139
-0.061346  0.790412  0.609497
-0.271906  0.466937  0.841449
-0.047709  0.357803  0.932578
-0.466576  0.847049  0.254589
-0.367541  0.850271  0.376767
-0.252706  0.722702  0.643305
-0.337379  0.716009  0.611152
-0.38686  0.721451  0.574324
-0.190568  0.771304  0.607268
-0.183359  0.748353  0.637454
-0.079256  0.776713  0.624848
-0.169199  0.741393  0.649391
-0.073872  0.774228  0.628581
-0.099482  0.749193  0.654838
-0.067253  0.750094  0.657902
0.329148  -0.944007  -0.022621
0.216826  -0.958989  -0.182555
0.290642  -0.881174  -0.372908
0.391315  -0.864641  -0.31507
0.460774  -0.616841  -0.638118
0.598111  -0.632338  -0.492353
0.688874  -0.504297  -0.520709
0.730445  -0.411165  -0.545338
0.726078  -0.364999  -0.582741
0.760779  -0.34647  -0.548793
0.727544  -0.418241  -0.543833
0.599989  -0.524302  -0.604252
0.265649  -0.736963  -0.621543
0.55722  -0.553236  -0.619222
0.608652  -0.529279  -0.591106
0.501615  -0.590787  -0.631943
0.949369  -0.044736  -0.310963
0.825001  -0.291941  -0.483883
0.85156  -0.157243  -0.50012
0.826243  -0.208552  -0.523286
0.840137  -0.197231  -0.505242
-0.009739  -0.806959  -0.590527
0.201516  -0.747435  -0.633034
-0.007806  -0.796838  -0.604143
-0.227823  -0.810143  -0.540153
-0.111063  -0.808218  -0.578315
-0.411374  -0.790258  -0.454162
-0.949137  -0.242745  0.200536
-0.943111  -0.294895  0.153551
-0.890736  -0.452835  -0.039106
-0.733844  -0.635454  -0.240149
-0.78144  -0.593096  -0.193879
-0.878839  -0.046878  0.474809
-0.270356  0.650505  0.709755
-0.061642  0.758987  0.648181
-0.352715  0.65784  0.665461
-0.463573  0.578147  0.671451
-0.456439  0.568894  0.684122
-0.290105  0.510145  0.809686
-0.879039  -0.161409  0.448595
-0.585403  0.30216  0.752331
0.575557  -0.462547  0.674377
0.476423  -0.763204  0.43651
0.216181  0.105714  0.970613
-0.099555  0.974421  0.201477
-0.137947  0.935911  0.324101
-0.546103  0.827228  0.132154
-0.478211  0.765699  0.430139
-0.409762  0.91219  -0.001858
-0.414133  0.861048  0.295112
0.290664  0.842914  0.452781
0.188637  0.889284  0.416642
0.242113  0.89368  0.37778
-0.066604  0.570976  0.81826
0.151033  0.702984  0.694984
0.160323  0.510532  0.84478
-0.341496  0.785207  0.516555
-0.268934  0.774559  0.572479
0.048591  0.839358  0.541403
0.035014  0.811994  0.582614
0.130307  0.836055  0.532947
0.097077  0.81062  0.577469
0.102484  0.801111  0.589677
-0.00805  0.772778  0.634626
0.041427  0.797618  0.601739
-0.05999  0.746048  0.663184
-0.039883  0.757471  0.65165
0.423718  -0.886953  0.183786
0.482096  -0.851215  -0.207406
0.677032  -0.723295  -0.135915
0.65175  -0.653188  -0.385445
0.787337  -0.403448  -0.466187
0.910587  -0.180132  -0.371999
0.870033  -0.223516  -0.439413
0.857077  -0.268211  -0.439867
0.788594  -0.30327  -0.534927
0.789876  -0.321196  -0.522425
0.735041  -0.37324  -0.566045
0.633388  -0.490475  -0.598543
0.726276  -0.404179  -0.556024
0.430945  -0.636248  -0.639902
0.913679  -0.123631  -0.387178
0.911445  -0.160381  -0.378875
0.947144  0.043805  -0.317804
0.278621  -0.714306  -0.641979
0.048454  -0.794855  -0.604862
-0.288751  -0.807962  -0.513635
-0.13124  -0.812089  -0.568583
-0.591246  -0.736625  -0.328347
-0.610865  -0.719665  -0.330039
-0.524147  -0.751863  -0.399966
-0.39868  -0.795114  -0.456999
-0.917997  -0.151237  0.366619
-0.925406  -0.080621  0.370302
-0.855631  0.130983  0.500739
-0.947832  -0.286288  0.140195
-0.84592  -0.525815  -0.089098
-0.745961  -0.636617  -0.195604
-0.322224  0.664608  0.674143
-0.482895  0.515411  0.70793
-0.468423  0.54869  0.692473
-0.194984  0.690522  0.696534
-0.213033  0.613393  0.760504
-0.513919  0.377522  0.770301
-0.786176  0.102397  0.60946
0.577981  -0.802941  0.145684
0.756628  -0.592173  0.27721
0.690438  -0.173819  0.702198
0.615129  -0.035114  0.787644
0.707168  0.063818  0.70416
0.415  0.27364  0.867696
0.196591  0.232991  0.952401
-0.207093  0.874451  0.43869
-0.30472  0.947665  0.09527
0.585968  0.669457  0.456583
0.653602  0.723199  0.223129
0.318946  0.61013  0.725268
-0.159242  0.843387  0.513167
0.102809  0.879662  0.464355
0.172588  0.867125  0.467234
0.272468  0.856752  0.437877
0.246785  0.836604  0.489071
0.256325  0.781985  0.568153
0.229993  0.771258  0.593518
0.16516  0.817297  0.55204
0.114442  0.799439  0.589746
0.01543  0.769445  0.638527
0.076249  0.782803  0.61758
0.07335  0.777347  0.624782
0.000504  0.749145  0.662406
-0.181746  0.7207  0.668999
0.660364  -0.684456  -0.308933
0.82297  -0.563002  -0.075828
0.810438  -0.438474  -0.3885
0.907292  -0.147572  -0.393755
0.966905  -0.063354  -0.247146
0.956353  0.010633  -0.292021
0.882676  -0.109777  -0.456981
0.876072  0.017633  -0.481858
0.870599  -0.202662  -0.448314
0.835541  -0.233844  -0.49718
0.502873  -0.585507  -0.635846
0.795377  -0.310151  -0.520752
0.75233  -0.364596  -0.548698
0.646176  -0.469858  -0.601407
0.805798  -0.287229  -0.517869
0.858402  -0.195299  -0.474347
0.566234  -0.529964  -0.631282
0.539834  -0.5615  -0.627135
0.964749  0.009159  -0.263011
0.934829  -0.087829  -0.344065
0.903782  0.043017  -0.425826
0.926357  0.167164  -0.337519
0.942403  0.232746  -0.24022
0.958888  0.21573  -0.184376
0.924993  0.377364  -0.044538
0.237896  -0.734895  -0.635086
0.445328  -0.616221  -0.64958
-0.154901  -0.819241  -0.552132
-0.026171  -0.804106  -0.593909
0.250775  -0.726583  -0.639679
0.18038  -0.748904  -0.637657
-0.292001  -0.82206  -0.488827
-0.68589  -0.687999  -0.23709
-0.668839  -0.68187  -0.296155
-0.356299  -0.805482  -0.47355
-0.737889  0.225428  0.636162
-0.881308  0.076666  0.466282
-0.844896  -0.529736  -0.074364
-0.793681  -0.585323  -0.165735
0.088869  0.732931  0.674473
-0.32028  0.660563  0.679027
0.84021  -0.309407  0.445325
0.840803  -0.105699  0.530923
0.950938  -0.297898  0.083503
0.51329  0.453114  0.728849
0.325063  0.945644  -0.009543
0.382191  0.878728  0.285951
-0.087857  0.990232  -0.108263
-0.086765  0.961065  0.262346
-0.01034  0.916094  0.40083
0.104865  0.990708  -0.086606
0.847372  0.521231  0.101388
0.886508  0.456945  -0.072833
0.670763  0.730913  0.125871
0.397756  0.830954  0.388981
0.677696  0.652522  0.339034
0.406197  0.751202  0.520288
0.394366  0.677318  0.62106
0.138733  0.702295  0.698237
0.122394  0.777133  0.61732
0.134399  0.796613  0.589359
0.001615  0.748596  0.663024
-0.005033  0.749716  0.66174
0.111935  0.763926  0.635521
0.941027  -0.180309  -0.286281
0.964074  -0.081156  -0.252931
0.944699  0.066934  -0.321037
0.943117  0.097215  -0.317932
0.961213  -0.047352  -0.271713
0.986312  -0.044193  -0.158857
0.935481  0.060359  -0.348183
0.892963  0.1705  -0.41659
0.978881  0.064181  -0.194095
0.92084  -0.113314  -0.373113
0.95223  0.053449  -0.300667
0.913868  -0.102526  -0.392854
0.884239  -0.174301  -0.433291
0.870982  -0.188371  -0.453769
0.782223  -0.321518  -0.533624
0.684598  -0.431943  -0.587155
0.888367  -0.114494  -0.44463
0.658739  -0.456  -0.598437
0.991922  0.066192  -0.108212
0.901223  0.272573  -0.3369
0.928077  0.36269  -0.084439
0.813504  0.551677  0.18402
0.577835  -0.526278  -0.623809
0.384748  -0.65302  -0.652329
-0.220629  -0.817606  -0.531831
-0.243281  -0.803497  -0.543329
-0.139698  -0.817555  -0.558649
0.304424  -0.702959  -0.642786
-0.726095  -0.633964  -0.266226
-0.298489  -0.791393  -0.53348
-0.384345  -0.78552  -0.485012
-0.455963  -0.765571  -0.45387
-0.540606  -0.745937  -0.389002
-0.57237  0.430016  0.698197
-0.591116  0.431446  0.681496
-0.51658  0.455425  0.725074
-0.607833  0.42224  0.672497
-0.808294  0.210225  0.54997
-0.953186  -0.235965  0.189094
-0.878556  -0.475774  -0.04218
-0.854631  -0.500023  -0.139938
-0.015844  0.725624  0.687909
-0.401159  0.655039  0.640309
-0.320002  0.672578  0.667262
-0.173112  0.714827  0.677536
0.167686  0.768527  0.617452
0.059405  0.735807  0.674581
0.963007  -0.108301  0.246757
0.971163  -0.007032  0.238313
0.845404  0.213618  0.489551
0.677472  0.507429  0.532492
0.528668  0.820592  -0.217114
0.25736  0.903721  0.342133
0.261157  0.936447  0.234229
0.22414  0.901822  0.369429
0.403618  0.914129  -0.038213
0.078882  0.960362  0.267361
0.940558  0.288426  -0.179336
0.911526  0.40183  0.087484
0.952515  0.137788  -0.271531
0.933773  0.292164  -0.20666
0.809123  0.553947  -0.196119
0.47706  0.813824  0.33182
0.595667  0.762087  0.25378
0.879262  0.468329  0.08698
0.201722  0.671838  0.712701
0.775539  0.553157  0.30423
0.076479  0.747386  0.659974
0.055887  0.770252  0.635286
-0.049406  0.765458  0.641586
0.122542  0.761164  0.636878
0.088546  0.764574  0.638425
-0.209765  0.70086  0.681758
0.123958  0.751642  0.647818
-0.105799  0.73181  0.673246
0.982896  -0.062637  -0.173183
0.946962  0.077946  -0.311749
0.974663  0.038154  -0.220401
0.98558  -0.047146  -0.162508
0.985053  0.011301  -0.171883
0.939496  -0.032969  -0.340971
0.901956  -0.05836  -0.427866
0.920761  -0.009868  -0.390003
0.944335  0.175691  -0.278145
0.899728  0.240985  -0.363889
0.948217  0.281409  0.147286
0.965495  0.068658  -0.251208
0.966411  0.22386  -0.126239
0.906606  -0.102454  -0.409351
0.938617  0.019177  -0.344427
0.920343  -0.039991  -0.389063
0.834987  -0.252389  -0.488975
0.729601  -0.381364  -0.567666
0.79531  -0.293913  -0.530186
0.839947  0.484508  -0.244422
0.859286  0.490102  -0.146382
0.75414  0.647024  0.112396
0.973115  0.186149  0.135632
0.689924  -0.417092  -0.591641
0.50196  -0.582211  -0.639584
-0.319671  -0.795917  -0.514127
0.188444  -0.75109  -0.632734
-0.359348  -0.793674  -0.490868
-0.222373  -0.805591  -0.549157
-0.026756  -0.807329  -0.589495
-0.626533  -0.711386  -0.318413
-0.706538  -0.658503  -0.259188
-0.821343  -0.543551  -0.173056
-0.423223  -0.778467  -0.463542
-0.553422  -0.737652  -0.386775
-0.4319  0.54059  0.721959
-0.370841  0.617648  0.693533
-0.185508  0.625227  0.758075
-0.161348  0.702356  0.693299
-0.730387  0.355329  0.583332
-0.929657  0.00547  0.368387
-0.931661  0.015804  0.362985
-0.939882  -0.334998  0.06632
-0.864828  -0.48505  -0.129612
-0.35393  0.617456  0.702483
-0.251539  0.659944  0.707956
0.999559  -0.00068  -0.029699
0.999557  -0.007375  -0.028821
0.989469  0.14397  0.014975
0.944849  0.301789  0.127218
0.513563  0.824909  0.236175
0.673592  0.705207  -0.221261
0.825036  0.498651  -0.265823
0.942461  0.18658  -0.27741
0.970072  -0.015051  -0.242349
0.963187  0.188827  -0.191349
0.907065  0.420477  0.02078
0.847324  0.513229  0.136521
-0.050932  0.714247  0.698038
0.910484  0.410409  0.050824
0.601654  0.660435  0.449264
-0.017507  0.734673  0.678195
-0.21228  0.718275  0.662584
-0.156506  0.722924  0.672969
-0.166105  0.725755  0.667599
0.009762  0.744835  0.667177
0.274707  0.744106  0.608968
0.286719  0.740335  0.608027
-0.067671  0.715324  0.695509
0.913866  -0.075319  -0.39897
0.946828  0.058423  -0.31639
0.826911  0.502832  -0.251752
0.961465  0.267725  -0.062512
0.96419  0.093302  -0.248258
0.903493  -0.089525  -0.419148
0.945565  0.293658  -0.140253
0.94882  0.091448  -0.302289
0.92557  -0.047738  -0.375555
0.959188  0.183334  -0.215283
0.880882  -0.153113  -0.447887
0.701665  -0.417187  -0.577599
0.77741  -0.32203  -0.540306
0.882497  -0.15123  -0.445342
0.862148  -0.164436  -0.479231
0.695484  0.71854  -0.0018
0.638767  -0.471009  -0.608381
0.317822  -0.677557  -0.663254
0.546662  -0.535177  -0.644008
-0.263842  -0.814797  -0.51623
0.138987  -0.752447  -0.643822
-0.159498  -0.835822  -0.525321
-0.712597  -0.659099  -0.240403
-0.847002  -0.522739  -0.096597
-0.824354  -0.546361  -0.14809
-0.336051  -0.793826  -0.506863
-0.69332  -0.657628  -0.294672
-0.514138  -0.751154  -0.414041
0.088151  0.762458  0.641005
0.051086  0.799037  0.599108
0.051081  0.729317  0.682267
-0.656224  0.454549  0.602292
-0.826926  0.229993  0.513125
-0.939064  -0.326258  0.10823
-0.946751  -0.179952  0.266982
-0.059471  0.734867  0.675599
-0.338625  0.600834  0.724107
-0.322101  0.591794  0.738939
-0.123315  0.712368  0.690887
-0.295762  0.590546  0.750853
-0.215489  0.607563  0.764482
-0.100882  0.643835  0.758485
0.178597  0.768262  0.614716
0.595579  0.802619  -0.032998
0.408537  0.700712  0.584893
0.325752  0.750774  0.574652
0.94784  0.318393  -0.015038
0.913277  0.405156  0.042109
0.781213  0.592109  0.197768
0.600047  0.694289  0.397374
0.047755  0.798646  0.599903
-0.200603  0.735618  0.647012
0.068405  0.728203  0.68194
0.330521  0.722094  0.60773
-0.042938  0.670721  0.740466
0.902449  0.430796  -0.001292
0.960636  0.164637  -0.22377
0.949229  0.043543  -0.311559
0.937185  0.00298  -0.34882
0.946568  0.310614  -0.086761
0.952266  0.136394  -0.273105
0.733832  -0.368073  -0.570975
0.791451  -0.292338  -0.536791
0.8318  -0.213051  -0.51256
0.93923  0.015003  -0.342962
0.95051  0.050899  -0.306497
0.930156  -0.053286  -0.363278
0.700555  -0.409161  -0.584645
0.282039  -0.70337  -0.652476
0.471466  -0.600001  -0.646311
0.682647  -0.434357  -0.587645
-0.105879  -0.79022  -0.603607
0.20712  -0.725924  -0.655848
-0.180419  -0.805526  -0.564426
-0.167535  -0.813477  -0.556944
-0.814037  -0.555628  -0.169178
-0.424185  -0.769844  -0.476873
-0.658323  -0.689423  -0.302171
-0.79118  -0.583208  -0.18413
-0.522258  -0.738636  -0.426221
0.144388  0.789278  0.596819
0.167852  0.809493  0.562625
-0.279197  0.710963  0.645431
-0.938063  -0.314429  0.145508
-0.62358  0.415735  0.662051
-0.872128  0.089261  0.481067
-0.273653  0.605981  0.746928
-0.303103  0.567102  0.765848
0.056912  0.787853  0.613228
-0.269779  0.581187  0.767751
-0.211746  0.566161  0.796634
-0.171807  0.606923  0.775968
-0.021835  0.639409  0.768557
-0.05274  0.609232  0.791237
0.575094  0.724112  0.380696
0.235089  0.794641  0.559714
0.655886  0.689448  0.307368
0.752015  0.629852  0.19432
0.443633  0.779272  0.442634
0.202121  0.790244  0.5785
0.024905  0.740486  0.67161
0.127096  0.728424  0.673235
-0.168151  0.733327  0.658754
0.149195  0.738163  0.657918
0.095426  0.683707  0.723491
-0.01659  0.638027  0.769835
0.644869  0.657666  0.389384
0.751893  0.63462  0.178649
0.524062  0.726575  0.444351
0.755283  0.61933  0.214423
0.95504  0.121777  -0.270312
0.958931  0.115418  -0.259095
0.770107  -0.324238  -0.549367
0.86  -0.213481  -0.463494
0.776195  -0.325424  -0.540019
0.963652  0.239695  -0.117985
0.967886  0.197369  -0.155699
0.923194  -0.139055  -0.358296
0.977981  0.014727  -0.208172
0.295749  -0.695388  -0.654956
0.619908  -0.488803  -0.613829
-0.088709  -0.777266  -0.622886
-0.230693  -0.782463  -0.578388
-0.297278  -0.779969  -0.550703
-0.818809  -0.559204  -0.129778
-0.535169  -0.740631  -0.406276
-0.448101  -0.766768  -0.459643
-0.541418  -0.745569  -0.388578
-0.419396  -0.755155  -0.503832
-0.772219  -0.607686  -0.18546
-0.696387  -0.689266  -0.199896
-0.772023  -0.618058  -0.14827
-0.631  -0.711183  -0.30993
-0.809446  -0.571647  -0.134226
-0.820283  -0.55708  -0.129607
0.022496  0.769596  0.638134
-0.271206  0.659312  0.701252
-0.876291  -0.48125  -0.022645
-0.956741  -0.124979  0.262731
-0.864495  0.147249  0.480589
-0.10885  0.672286  0.732245
-0.250628  0.572505  0.780656
-0.09055  0.578029  0.810977
-0.171404  0.536537  0.826286
-0.189032  0.509215  0.839623
-0.401751  0.438049  0.804182
-0.187275  0.585495  0.788748
0.008022  0.586475  0.809928
0.080976  0.63378  0.769263
0.0057  0.586303  0.810072
0.6006  0.710857  0.366008
0.368125  0.76242  0.532165
0.103851  0.771402  0.627817
0.218114  0.714869  0.664371
0.09583  0.688589  0.718792
0.136134  0.664546  0.734742
0.506841  0.692359  0.513567
0.402093  0.736688  0.543702
0.85674  0.487893  0.167202
0.958457  0.267466  -0.099107
0.793532  -0.344245  -0.501799
0.870875  -0.229263  -0.43476
0.904376  0.41331  0.106204
0.852133  0.491979  0.178398
0.823326  0.533906  0.192557
0.969813  0.239458  -0.046081
0.917287  0.392628  0.066534
0.894777  -0.269759  -0.355815
0.859108  -0.296906  -0.41687
0.99029  -0.086113  -0.109131
0.95065  -0.199464  -0.23765
0.984756  0.17234  0.023535
0.251375  -0.673853  -0.694789
0.084782  -0.755348  -0.649816
0.45719  -0.591191  -0.664432
0.425529  -0.60227  -0.675423
0.670007  -0.448529  -0.591533
-0.177165  -0.790209  -0.586671
-0.080609  -0.769212  -0.633889
-0.333073  -0.780238  -0.529425
-0.533566  -0.766459  -0.357558
-0.431993  -0.793965  -0.427786
-0.625981  -0.718102  -0.3041
-0.818802  -0.574066  -0.003396
-0.649389  -0.727547  -0.221292
-0.840407  -0.537753  -0.067359
-0.164815  0.677872  0.716467
-0.918537  -0.382613  0.099486
-0.924042  -0.280195  0.26007
-0.562339  0.47628  0.675968
-0.483169  0.523119  0.702064
-0.146081  0.704038  0.694975
-0.195608  0.596832  0.778157
-0.081993  0.538557  0.83859
-0.014964  0.565047  0.824923
-0.15077  0.473682  0.867695
-0.208515  0.474338  0.855292
-0.561381  0.438766  0.701666
0.040187  0.566697  0.822946
0.164958  0.709076  0.685565
0.232308  0.687063  0.68846
0.83102  -0.347449  -0.434379
0.799064  -0.367251  -0.476049
0.537259  0.691918  0.482289
0.830562  0.533281  0.160554
0.898216  0.399572  0.183167
0.894556  -0.32233  -0.309633
0.785603  -0.428603  -0.446237
0.935199  -0.275413  -0.222597
0.999856  -0.010365  0.013466
0.969617  -0.217281  -0.112394
0.908887  -0.327423  -0.258298
0.9278  -0.285347  -0.240343
0.92113  0.298207  0.250182
0.152973  -0.681364  -0.715781
0.03599  -0.730549  -0.681912
0.539191  -0.543466  -0.643365
0.224671  -0.691415  -0.686636
0.292763  -0.651234  -0.700132
-0.194476  -0.783693  -0.589919
-0.031894  -0.734393  -0.677975
-0.553551  -0.784645  -0.27913
-0.603964  -0.748097  -0.274916
-0.296762  -0.818683  -0.491621
-0.37165  -0.825619  -0.424533
-0.466384  -0.822999  -0.32428
-0.876945  -0.442678  0.187091
-0.835223  -0.52344  0.16856
-0.726612  -0.685447  -0.046877
-0.797183  0.264722  0.542606
-0.794041  0.171416  0.583194
-0.845946  -0.041263  0.531669
-0.892541  -0.189943  0.409013
-0.115601  0.520373  0.846078
-0.036938  0.517075  0.855143
-0.078346  0.53289  0.84255
-0.326409  0.360409  0.873821
-0.106184  0.426336  0.898311
-0.045118  0.483826  0.874
-0.094702  0.524194  0.846317
-0.119053  0.514143  0.849402
-0.686077  0.365196  0.62923
-0.643889  0.272878  0.714804
-0.756241  0.115822  0.64396
-0.689405  0.063732  0.721568
0.266964  0.610258  0.745866
0.277245  0.673363  0.68536
0.450046  0.721318  0.526459
0.699693  -0.457209  -0.54899
0.58778  0.595982  0.547102
0.729347  0.45252  0.513107
0.414338  0.705261  0.575266
0.85993  -0.385498  -0.334533
0.680262  -0.502377  -0.533723
0.677694  -0.488068  -0.550019
0.761686  -0.446969  -0.469099
0.984969  0.109874  0.133285
0.981452  -0.153799  0.114448
0.934857  -0.244855  -0.257077
0.989244  -0.09975  -0.10699
0.951388  0.200633  0.233681
0.012673  -0.747364  -0.664294
0.475734  -0.562963  -0.675833
0.103189  -0.71724  -0.689144
0.074107  -0.716063  -0.694091
0.104218  -0.705424  -0.701082
0.238415  -0.648129  -0.723247
0.398979  -0.568069  -0.719801
0.595041  -0.524302  -0.609125