<?xml version="1.0"?>
<VTKFile type="PolyData" version="0.1" byte_order="LittleEndian" compressor="vtkZLibDataCompressor">
	<PolyData>
		<Piece NumberOfPoints="1139" NumberOfVerts="0" NumberOfLines="0" NumberOfStrips="0" NumberOfPolys="2294">
		<PointData Normals="Normals">
		<DataArray type="Float32" Name="Normals" NumberOfComponents="3" format="ascii">
-0.497344  -0.757068  0.423671
-0.299691  -0.678781  0.670404
-0.102124  -0.992573  0.066098
-0.404687  -0.914091  -0.02582
-0.191312  -0.731105  0.654893
-0.357318  -0.608966  0.708156
-0.679381  -0.438417  0.588415
-0.517169  -0.522521  0.677871
-0.664607  -0.576438  0.475412
-0.707632  -0.702521  0.075639
-0.80646  -0.519421  0.282532
-0.088127  -0.977984  0.189158
0.018491  -0.874005  0.485566
-0.050499  -0.756479  0.652066
0.05619  -0.711814  0.700116
-0.364951  -0.728717  0.579467
-0.903325  -0.289654  0.316392
-0.72397  -0.373521  0.579956
0.161774  -0.703777  -0.691756
-0.090285  -0.896309  -0.434142
0.034083  -0.897961  -0.438753
0.201743  -0.964146  0.1724
0.222404  -0.770944  0.596809
0.228885  -0.805061  0.547255
0.194473  -0.726867  0.658669
-0.050328  -0.873457  0.484293
-0.453701  -0.769256  0.449889
-0.740891  -0.569998  0.355223
-0.846933  -0.247876  0.470385
-0.875511  -0.128309  0.465851
-0.802623  -0.530776  0.272165
-0.915775  -0.098119  0.389525
-0.885513  -0.431684  0.171802
-0.977658  -0.155847  0.141054
-0.977194  -0.20941  0.035213
-0.956898  -0.070023  0.281856
-0.021368  -0.717154  -0.696587
-0.382378  -0.80598  -0.451867
-0.778447  -0.585461  -0.226397
-0.885375  -0.424523  0.189451
0.086763  -0.970484  -0.225019
0.39701  -0.910721  0.113882
0.504324  -0.727198  0.465661
0.43308  -0.668367  0.604753
0.562318  -0.71423  0.416743
0.327308  -0.88614  0.328063
0.173372  -0.906866  0.384104
0.150084  -0.963489  0.221728
-0.570031  -0.805541  0.161766
-0.952679  -0.239509  0.187183
-0.9195  -0.03562  0.391472
-0.915121  0.02539  0.402378
-0.869744  -0.493186  -0.017683
-0.791316  -0.602794  0.102265
-0.957399  -0.271205  -0.099173
-0.995337  -0.096408  -0.00313
-0.968551  0.191499  0.158863
0.19671  -0.548001  -0.813019
0.120765  -0.71201  -0.691706
0.274034  -0.46987  -0.839124
0.164745  -0.529247  -0.83232
0.319999  -0.541876  -0.777156
-0.830736  -0.393955  -0.39329
-0.332846  -0.637195  -0.695123
0.213041  -0.837812  -0.502678
0.677092  -0.564454  0.472162
0.54836  -0.617183  0.564258
0.516515  -0.797243  0.312434
0.26256  -0.964145  0.038546
0.602288  -0.791963  0.100218
-0.135879  -0.985893  0.097734
-0.296288  -0.952116  0.07543
-0.985799  0.016701  0.167096
-0.950107  -0.241063  -0.197951
-0.902369  0.076701  0.424084
-0.875804  0.254758  0.409959
-0.556074  -0.831046  0.01204
-0.717754  -0.696288  0.003604
-0.722096  -0.690431  -0.043393
-0.953324  -0.243351  -0.178754
-0.989437  0.086982  -0.115964
-0.964409  -0.051644  -0.259324
-0.953001  0.273992  -0.129299
-0.933773  0.353011  0.058743
-0.86583  0.34497  0.3624
0.298357  -0.4418  -0.846047
0.220255  -0.430192  -0.875456
0.396528  -0.759125  -0.516231
0.416208  -0.631558  -0.654145
0.17512  -0.439908  -0.880803
-0.105518  -0.6097  -0.785577
0.059607  -0.467791  -0.881827
-0.501  -0.492705  -0.711506
-0.684072  -0.355659  -0.63683
0.6906  -0.705181  -0.160597
0.608097  -0.790867  -0.068908
0.782331  -0.595694  0.181956
0.817459  -0.406662  0.407905
0.777747  -0.510922  0.366153
0.751425  -0.612589  0.245143
0.354256  -0.932864  0.065321
0.153224  -0.978601  0.137341
0.022116  -0.995192  0.095414
0.587211  -0.809126  0.022341
0.736555  -0.675547  0.033519
0.56093  -0.784148  0.265462
0.762024  -0.64278  -0.078438
0.804396  -0.577481  0.139507
0.778568  -0.624042  -0.066355
-0.10199  -0.987066  0.123688
-0.496335  -0.868109  0.006176
-0.080135  -0.964286  0.252452
-0.212988  -0.911532  0.351775
-0.998808  0.034878  -0.03414
-0.916639  0.218383  0.334787
-0.877437  -0.209625  -0.431464
-0.849857  0.279358  0.446881
-0.895342  -0.443893  -0.036347
-0.644792  -0.738867  0.195751
-0.842091  -0.532163  0.087666
-0.992826  -0.028307  -0.116172
-0.978354  -0.198722  -0.057727
-0.92493  0.228518  -0.303784
-0.959366  0.073651  -0.272382
-0.909774  0.14565  -0.388712
-0.948464  0.236803  -0.21057
-0.936323  0.327335  0.127088
0.262711  -0.444704  -0.856283
0.160726  -0.439168  -0.883911
0.579483  -0.746253  -0.327576
0.457985  -0.508324  -0.729285
0.4027  -0.431276  -0.807362
0.194426  -0.509135  -0.838439
0.468583  -0.386746  -0.794266
0.249822  -0.459927  -0.852089
0.272441  -0.474687  -0.836928
0.216422  -0.425285  -0.878803
-0.01658  -0.42821  -0.903527
-0.600703  -0.403075  -0.690425
-0.370743  -0.40936  -0.833651
-0.519927  -0.356411  -0.776304
0.841147  -0.489895  0.229073
0.914933  -0.326179  0.237707
0.348106  -0.862103  0.36824
0.14879  -0.903755  0.401359
0.664542  -0.74277  0.08171
0.847568  -0.521249  -0.099645
0.875598  -0.473647  0.094803
0.769572  -0.589367  0.245775
0.855821  -0.470062  0.215899
0.882394  -0.470511  0.000565
0.146818  -0.757354  0.636285
-0.254204  -0.707957  0.658922
-0.905656  -0.055253  -0.420397
-0.973776  0.224669  -0.035824
-0.696295  -0.251707  -0.672173
-0.832631  0.336396  0.439958
-0.966746  -0.253895  0.030651
-0.684006  -0.627694  0.371667
-0.825101  -0.456035  0.333527
-0.914692  -0.303071  0.267371
-0.994317  0.082688  -0.067047
-0.997273  -0.061027  0.041496
-0.889151  0.203907  -0.409675
-0.928957  0.112233  -0.352764
-0.989399  0.088355  0.115249
-0.943673  0.109232  0.31233
-0.890718  0.224156  0.395443
-0.953593  0.174885  0.245103
0.65116  -0.575105  -0.495223
0.715498  -0.417911  -0.559833
0.261683  -0.537486  -0.801643
0.52499  -0.368813  -0.767048
0.319513  -0.406655  -0.855887
0.336729  -0.352628  -0.873079
0.183782  -0.485708  -0.854583
-0.077067  -0.413886  -0.907061
-0.501964  -0.236331  -0.831974
0.820628  -0.495277  -0.285078
0.908056  -0.415171  -0.055389
0.935197  -0.291695  0.2008
0.975321  -0.214144  0.053772
0.512559  -0.577112  0.635787
0.337014  -0.755872  0.561319
0.937969  -0.344334  0.040601
0.970999  -0.232228  0.056852
0.775637  -0.371463  0.510297
0.835093  -0.198917  0.512886
0.695502  -0.219609  0.684141
0.90908  -0.414641  -0.040589
0.959855  -0.265949  0.089162
0.077622  -0.649795  0.756135
0.415081  -0.377916  0.827579
-0.712011  -0.069231  -0.698747
-0.831911  0.112763  -0.543332
-0.910352  0.396101  -0.119849
-0.866883  0.400847  0.296371
-0.900026  0.320328  0.295537
-0.959985  -0.24564  0.134499
-0.969836  0.00242  0.243744
-0.511401  -0.442582  0.736607
-0.722332  -0.215536  0.6571
-0.901608  -0.080137  0.425067
-0.956632  0.172358  -0.234838
-0.98044  0.157615  0.117875
-0.962592  0.270955  -0.00067
-0.880068  0.359127  -0.310657
-0.873555  0.231163  -0.428329
-0.893582  0.251896  -0.371564
-0.978153  0.025441  -0.206324
-0.956359  0.054065  -0.28715
-0.993217  -0.058097  0.100725
-0.996575  -0.05783  -0.059115
-0.95657  0.051594  0.2869
-0.999271  0.03649  -0.011204
-0.99054  0.034256  0.132883
0.72918  -0.34573  -0.590565
0.242676  -0.472905  -0.847036
0.676468  -0.375537  -0.633533
0.47629  -0.213296  -0.853026
0.260906  -0.320041  -0.91077
0.345191  -0.239558  -0.907444
0.188447  -0.466568  -0.864177
0.101109  -0.388314  -0.915964
-0.154562  -0.329607  -0.93138
-0.293511  -0.154065  -0.943459
-0.137653  -0.245607  -0.959546
0.912876  -0.314789  -0.259933
0.98864  -0.149634  0.014181
0.968334  -0.131539  -0.212193
0.547771  -0.063028  0.834251
0.983892  0.004746  0.178698
0.987999  -0.153541  -0.016858
0.944688  -0.320587  -0.0692
0.923053  -0.137448  0.359278
0.735498  -0.032973  0.676724
0.818623  0.014682  0.574143
0.972969  -0.222621  -0.061414
0.292464  -0.374817  0.87976
0.258486  -0.225676  0.939284
-0.037642  -0.179391  0.983058
-0.494836  -0.039665  -0.868081
-0.735231  0.165642  -0.657266
-0.938564  0.340002  0.05913
-0.846518  0.328689  -0.418772
-0.70596  0.276387  0.652097
-0.184364  0.049661  0.981603
-0.633468  0.145417  0.759982
-0.9303  0.29981  -0.211319
-0.887264  0.294768  0.354787
-0.937631  0.345098  -0.041892
-0.936216  0.327013  -0.128698
-0.919626  0.264287  -0.290586
-0.997037  -0.047902  -0.060188
-0.982367  0.165976  -0.086059
-0.973139  -0.022321  0.229135
-0.956946  -0.005743  0.290209
-0.988185  -0.065294  0.138666
-0.977631  -0.029173  0.208294
-0.996221  -0.06384  0.058892
-0.932667  0.094808  -0.348056
-0.998019  -0.034288  -0.052751
-0.940111  -0.024362  -0.339997
0.807299  -0.275963  -0.521644
0.709312  -0.2498  -0.659149
0.245704  -0.254283  -0.935398
0.821927  0.018787  -0.569284
0.533651  -0.131441  -0.835428
0.44274  -0.059886  -0.894648
0.184623  -0.166588  -0.968588
0.013902  -0.2229  -0.974742
-0.029596  -0.118754  -0.992483
0.994174  -0.089036  -0.06075
0.983966  -0.036069  -0.174672
0.894727  -0.087206  -0.438016
0.981447  -0.018355  -0.190854
0.839031  0.194458  0.508147
0.918611  0.170767  0.356359
0.968  0.144907  0.204885
0.998982  0.006333  -0.044654
0.777342  0.201983  0.59577
0.709963  0.145438  0.689057
0.608996  0.210601  0.764703
0.434175  0.082131  0.897077
0.461714  0.070579  0.884217
-0.267559  -0.187528  0.945117
0.282403  0.053255  0.957816
-0.242818  -0.055434  -0.968487
-0.92879  0.252951  -0.270859
-0.545244  0.305352  0.780685
-0.65871  0.425022  0.620853
-0.163984  0.294632  0.941436
-0.907697  0.330627  0.258403
-0.862904  0.443736  0.241857
-0.795393  0.569538  0.207308
-0.863912  0.469257  0.182903
-0.957738  0.269558  0.10038
-0.753169  0.567554  0.332593
-0.744611  0.438201  0.503522
-0.985396  0.11062  0.129453
-0.993441  -0.028792  0.11066
-0.982396  -0.118583  0.14435
-0.976236  -0.216619  0.006303
-0.923516  -0.243332  -0.29649
-0.945229  -0.117933  -0.304359
0.640814  0.02446  -0.767307
0.31031  0.008564  -0.950597
0.176158  -0.078239  -0.981248
-0.121628  -0.05099  -0.991265
0.927381  0.071869  -0.367152
0.974611  0.005334  -0.223839
0.447455  0.229674  0.864311
0.866699  0.2479  0.432871
0.947528  0.174205  0.268037
0.990672  0.105229  -0.086581
0.978008  0.195727  0.072046
0.668197  0.336513  0.66353
0.787841  0.264763  0.556064
0.62795  0.343197  0.698495
0.467219  0.342887  0.814945
0.465071  0.271439  0.842633
0.48318  0.185627  0.855617
0.287185  0.251467  0.924278
-0.515262  0.111476  -0.849751
-0.590167  0.125876  -0.797408
-0.814465  0.174749  -0.553272
-0.2541  0.399418  0.880851
-0.399311  0.495557  0.771346
0.30431  0.354279  0.884241
-0.534558  0.657486  0.530999
-0.835275  0.376861  0.400364
-0.928222  0.20697  0.30914
-0.970221  0.02709  0.240703
-0.974232  -0.084308  0.209197
-0.976656  -0.166142  0.136158
-0.957398  -0.13937  0.252914
-0.895853  -0.367236  -0.250171
-0.96377  -0.264401  0.035201
-0.747147  -0.234512  -0.621913
-0.673975  -0.353587  -0.64864
-0.677223  -0.427775  -0.598647
-0.635803  0.028444  -0.771327
-0.552163  -0.100885  -0.82761
0.668743  0.018298  -0.743269
0.840292  0.099777  -0.532874
0.251087  -0.080131  -0.964642
0.369268  -0.107109  -0.92313
0.166181  -0.161624  -0.97276
-0.188636  -0.073213  -0.979314
0.949155  0.004101  -0.314782
0.896785  0.03183  -0.441319
0.987158  0.124365  -0.100265
0.971242  0.057787  -0.230975
0.801534  0.263098  0.536957
0.893732  0.274316  0.354957
0.955803  0.256382  0.143908
0.966349  0.241837  0.087663
0.98178  0.189481  0.014302
0.572651  0.349707  0.741468
0.676508  0.29118  0.676425
0.528177  0.323671  0.785027
0.514224  0.29198  0.806425
-0.069604  0.44645  0.892097
-0.623799  0.546882  0.558386
0.313806  0.377272  0.871316
0.460295  0.368136  0.80784
-0.510084  0.662479  0.548576
-0.188706  0.668843  0.719054
-0.521511  0.593689  0.612829
-0.761564  0.353783  0.543008
-0.897067  0.174851  0.40583
-0.957915  -0.036608  0.284708
-0.909806  0.034865  0.413567
-0.92961  -0.0669  0.362421
-0.970607  -0.199829  0.13413
-0.908827  -0.069248  0.411386
-0.662671  -0.488596  -0.567575
-0.903812  -0.404863  -0.138597
-0.942488  -0.334035  0.011692
-0.892709  -0.404432  -0.198759
-0.840324  -0.423572  -0.338294
-0.962335  -0.198668  0.185588
-0.961769  -0.213005  0.17213
-0.454478  -0.185516  -0.871225
-0.430696  -0.274067  -0.859877
-0.549736  -0.339805  -0.7631
-0.52709  -0.325567  -0.784973
-0.364824  -0.400036  -0.840758
-0.468967  -0.444005  -0.763499
-0.425175  0.036153  -0.904389
-0.415866  -0.065487  -0.907065
-0.10836  -0.12284  -0.986493
0.834476  -0.017872  -0.550754
0.742609  -0.121958  -0.658528
0.503151  -0.209588  -0.838399
0.316213  -0.225741  -0.921439
0.168393  -0.208444  -0.963429
0.937044  0.031975  -0.347745
0.894278  -0.003413  -0.447499
0.979794  0.117562  -0.161813
0.947311  0.071947  -0.312129
0.700172  0.28411  0.655013
0.68538  0.358317  0.633926
0.772775  0.398394  0.494065
0.865324  0.366702  0.341678
0.961953  0.236125  0.137448
0.979292  0.194193  0.057246
0.982653  0.179864  -0.04519
0.506008  0.326104  0.798506
0.54527  0.335317  0.768273
0.626151  0.268549  0.731995
0.121695  0.46109  0.878969
-0.16687  0.580523  0.796961
-0.505704  0.568042  0.649302
-0.450769  0.520943  0.724862
0.090166  0.613587  0.784462
-0.506266  0.417398  0.754635
-0.603961  0.315801  0.73178
-0.839144  0.256548  0.479605
-0.847918  0.151523  0.508012
-0.885647  0.044267  0.462244
-0.918863  0.003716  0.394558
-0.405334  -0.538843  -0.73848
-0.544152  -0.533385  -0.647611
-0.947557  -0.269879  0.171175
-0.921591  -0.354125  0.158952
-0.813113  -0.540204  -0.216856
-0.948403  -0.162829  0.272064
-0.935611  -0.131762  0.327522
-0.922997  -0.170481  0.344983
-0.078141  -0.246232  -0.966056
-0.195238  -0.265698  -0.94408
-0.293353  -0.321441  -0.900344
-0.05314  -0.382309  -0.922505
-0.369207  -0.445909  -0.815384
-0.276995  -0.485872  -0.828977
0.84115  -0.057119  -0.537777
0.564464  -0.163141  -0.809176
0.841695  -0.079849  -0.534017
0.721482  -0.157741  -0.674227
0.3927  -0.272546  -0.878354
0.171303  -0.241173  -0.955244
0.155641  -0.310328  -0.937802
0.899464  -0.054398  -0.433597
0.950771  0.052337  -0.305442
0.971577  0.058539  -0.229373
0.516821  0.470601  0.715143
0.912277  0.296931  0.282104
0.980171  0.190649  0.054011
0.989717  0.097406  -0.104751
0.364142  0.395904  0.843007
0.538601  0.379365  0.752324
0.020998  0.600332  0.799475
-0.108557  0.519086  0.8478
0.108486  0.539105  0.835222
0.207089  0.612046  0.763226
0.260361  0.547213  0.795469
0.255647  0.502828  0.825717
-0.079826  0.626654  0.775199
-0.544364  0.337717  0.767864
-0.805487  0.102177  0.583738
-0.723873  0.195963  0.661518
-0.817036  -0.055942  0.573866
-0.793446  0.071027  0.604482
-0.86294  0.056185  0.502173
-0.91131  -0.097357  0.400044
-0.384574  -0.505802  -0.772184
-0.280607  -0.521113  -0.80604
-0.507821  -0.614108  -0.604143
-0.400277  -0.557154  -0.72757
-0.952972  -0.199333  0.228276
-0.869731  -0.487029  0.079816
-0.890646  -0.374645  0.257663
-0.839431  -0.543244  0.015554
-0.636343  -0.62636  -0.450267
-0.76909  -0.581822  -0.264545
-0.856638  -0.169441  0.4873
-0.885246  -0.21377  0.413089
-0.88349  -0.296874  0.362369
-0.044329  -0.311543  -0.949198
-0.085934  -0.398637  -0.913074
0.115296  -0.360111  -0.925758
0.038999  -0.351777  -0.935271
-0.045059  -0.435342  -0.899137
-0.116437  -0.450094  -0.885357
0.603509  -0.271613  -0.749669
0.650241  -0.267848  -0.710946
0.811339  -0.165247  -0.560734
0.243982  -0.356849  -0.901738
0.099455  -0.349342  -0.931702
0.496881  -0.285843  -0.819392
0.90825  -0.103962  -0.405308
0.965944  -0.019727  -0.257997
0.666024  0.437709  0.604006
0.764239  0.427295  0.483072
0.706182  0.402589  0.582433
0.843504  0.314162  0.435664
0.928198  0.274742  0.250928
0.986739  0.138803  0.084141
0.989215  0.006074  -0.146345
0.434958  0.411684  0.800829
0.475338  0.410043  0.778408
-0.157034  0.468731  0.86927
-0.103303  0.463542  0.880033
0.159658  0.566302  0.808586
0.429397  0.520284  0.738189
0.368875  0.535947  0.759403
0.40963  0.49301  0.767557
-0.620147  0.279817  0.732885
-0.728247  0.187569  0.659147
-0.661518  0.135177  0.737645
-0.65254  0.204098  0.729751
-0.068585  -0.494616  -0.866401
-0.023053  -0.495894  -0.868077
-0.008094  -0.563111  -0.826341
-0.229799  -0.601414  -0.765175
-0.399283  -0.57907  -0.71081
-0.607113  -0.617397  -0.500235
-0.284457  -0.633724  -0.719359
-0.307959  -0.661577  -0.683723
-0.431406  -0.643991  -0.631794
-0.865626  -0.344936  0.36292
-0.879047  -0.422216  0.221383
-0.881414  -0.453435  0.132313
-0.890553  -0.309488  0.333364
-0.874651  -0.289772  0.38861
-0.623547  0.050487  0.780154
-0.797046  -0.130415  0.589669
-0.66421  -0.017928  0.747331
-0.849638  -0.20766  0.484759
-0.852289  -0.209399  0.479329
-0.882651  -0.238406  0.405079
-0.876826  -0.218601  0.428241
0.189413  -0.417802  -0.888574
0.541456  -0.286444  -0.790427
0.807507  -0.206264  -0.552619
0.705503  -0.255952  -0.660873
0.460009  -0.313691  -0.830656
0.960844  -0.072396  -0.267466
0.9051  -0.143725  -0.400171
0.990422  0.006292  -0.137926
0.818536  0.30498  0.486812
0.755822  0.347885  0.554715
0.887592  0.268869  0.374019
0.940591  0.188011  0.282739
0.995264  0.091532  0.032744
0.207815  0.473564  0.855891
0.431244  0.486761  0.759665
0.478252  0.451705  0.753152
-0.047512  0.389235  0.919912
-0.413068  0.338729  0.845363
-0.575898  0.28197  0.767355
-0.537887  0.235603  0.809425
-0.47919  0.180935  0.85886
0.184901  -0.429148  -0.884106
0.208706  -0.486469  -0.848404
0.185965  -0.416504  -0.889911
0.112772  -0.56441  -0.817756
0.04911  -0.5679  -0.821631
0.033342  -0.620024  -0.783874
0.010351  -0.622445  -0.782595
-0.723628  -0.568804  -0.390929
-0.770428  -0.586098  -0.250857
-0.758726  -0.562685  -0.328207
-0.527907  -0.665592  -0.527542
-0.084361  -0.621997  -0.778462
-0.382454  -0.724641  -0.573258
-0.866139  -0.304547  0.396301
-0.908724  -0.370895  0.19146
-0.90928  -0.374362  0.181834
-0.896778  -0.176898  0.405582
-0.869751  -0.05215  0.490727
-0.871736  -0.488997  -0.03096
-0.437076  0.140444  0.888392
-0.750091  -0.22425  0.622154
-0.613213  -0.070396  0.786774
-0.577307  0.02578  0.81612
-0.832788  -0.279336  0.477948
-0.879754  -0.272129  0.389844
-0.911333  -0.156999  0.380558
0.471964  -0.33674  -0.814774
0.337865  -0.38624  -0.858292
0.689628  -0.237626  -0.684067
0.852885  -0.171868  -0.493
0.935622  -0.106497  -0.336557
0.989526  0.000774  -0.144355
0.982228  -0.040125  -0.183355
0.522972  0.389753  0.758019
0.695527  0.3477  0.628766
0.813688  0.287102  0.505454
0.909492  0.191659  0.368906
0.987148  0.090861  0.131467
0.995544  0.013422  -0.093334
0.182793  0.468368  0.864418
0.316078  0.404191  0.858326
0.358755  0.437767  0.824412
0.422318  0.421137  0.802678
0.47582  0.392028  0.787343
0.148159  0.34632  0.926343
-0.157416  0.342986  0.926057
-0.36911  0.284218  0.88486
-0.245465  0.268281  0.931543
-0.247284  0.262856  0.932608
0.403981  -0.335781  -0.850912
0.385773  -0.377203  -0.841961
0.159048  -0.552145  -0.818437
0.422166  -0.43351  -0.796144
0.279893  -0.490924  -0.825017
0.429125  -0.388912  -0.815229
0.114998  -0.585176  -0.802711
0.339656  -0.515515  -0.786688
0.16907  -0.572462  -0.802311
-0.77602  -0.605024  -0.178155
-0.571492  -0.66904  -0.475166
-0.023483  -0.68434  -0.728785
0.110785  -0.579116  -0.807683
-0.202909  -0.709509  -0.674852
-0.90934  -0.232934  0.344737
-0.861448  -0.022867  0.50733
-0.858173  -0.509519  0.062683
-0.16902  0.154141  0.973485
-0.391554  0.025455  0.919803
-0.771614  -0.292832  0.564678
-0.53526  -0.163682  0.828677
-0.48838  -0.055882  0.87084
-0.757232  -0.269398  0.595
-0.872163  -0.387578  0.298522
-0.927216  -0.241385  0.286364
0.605246  -0.281361  -0.744656
0.808387  -0.189949  -0.557162
0.901831  -0.131882  -0.411471
0.965448  -0.074128  -0.249832
0.988659  -0.043998  -0.143591
0.529334  0.384581  0.756243
0.657514  0.370084  0.656288
0.786506  0.296069  0.541989
0.972839  0.110759  0.203266
0.966084  0.141195  0.216206
0.906032  0.229516  0.355567
0.999285  0.036943  -0.008065
0.408939  0.356153  0.840193
0.074879  0.344346  0.935852
0.355206  0.34172  0.87009
-0.094421  0.312507  0.945211
0.027523  0.342669  0.939053
0.052041  0.24562  0.967968
0.510517  -0.332725  -0.792885
0.264359  -0.539963  -0.799096
0.603022  -0.310765  -0.734703
0.583587  -0.394253  -0.709923
0.341696  -0.496008  -0.79826
0.28507  -0.49918  -0.818263
-0.667444  -0.657221  -0.350112
-0.88131  -0.469557  0.053002
-0.125833  -0.738961  -0.661893
-0.084186  -0.714326  -0.694731
0.077653  -0.569753  -0.818139
-0.323592  -0.776895  -0.540114
-0.180087  -0.685637  -0.705315
-0.891008  -0.306228  0.335155
-0.872034  -0.06446  0.485182
-0.856958  -0.006836  0.51534
-0.910325  -0.151711  0.385087
0.055526  0.113811  0.99195
-0.070009  -0.007522  0.997518
-0.254903  0.011916  0.966893
-0.407986  -0.104143  0.907029
-0.334587  -0.04195  0.941431
-0.597912  -0.223213  0.769856
-0.457617  -0.129333  0.879693
-0.706688  -0.269032  0.654381
-0.915389  -0.23001  0.33039
-0.926134  -0.17546  0.3339
-0.884431  -0.36668  0.288666
-0.934975  -0.238171  0.262863
-0.822611  -0.372278  0.429791
0.71761  -0.239426  -0.653997
0.660273  -0.264634  -0.702857
0.78497  -0.207545  -0.583735
0.853167  -0.152059  -0.498982
0.90453  -0.139928  -0.402798
0.993965  -0.0075  -0.109444
0.935184  -0.09696  -0.340631
0.927496  -0.118304  -0.354621
0.995015  -0.017568  -0.098169
0.593133  0.338663  0.730411
0.878366  0.244353  0.410809
0.687413  0.300339  0.661257
0.724001  0.302853  0.61976
0.990066  0.09417  0.104406
0.115348  0.349355  0.929863
0.565447  0.336134  0.753183
0.311694  0.352319  0.88245
0.220147  0.25056  0.942738
0.732337  -0.252949  -0.632217
0.770852  -0.243204  -0.588761
0.701084  -0.329345  -0.632466
0.396419  -0.474519  -0.785928
0.573491  -0.409023  -0.709795
0.571852  -0.393983  -0.719557
0.644609  -0.371655  -0.668096
0.657886  -0.413867  -0.629206
0.327128  -0.447049  -0.832547
0.23996  -0.437045  -0.86684
0.462662  -0.456642  -0.759883
-0.62078  -0.672615  -0.402766
-0.821336  -0.520929  -0.232465
-0.954593  -0.258891  0.147403
0.140275  -0.457383  -0.878137
-0.519  -0.701787  -0.48799
-0.403537  -0.700194  -0.588971
-0.442442  -0.497709  -0.74601
-0.140546  -0.49348  -0.858327
-0.881234  -0.174265  0.439384
-0.819979  -0.03058  0.571577
-0.851014  0.015465  0.524915
-0.854062  -0.123008  0.505419
-0.916335  -0.158422  0.367739
0.26954  0.062464  0.960961
0.352941  0.1841  0.917355
0.064435  -0.0528  0.996524
-0.290808  -0.076088  0.953751
-0.392885  -0.115265  0.912335
-0.306181  -0.105217  0.946141
-0.436596  -0.132691  0.889819
-0.939816  -0.227053  0.255331
-0.886299  -0.334998  0.319766
-0.863308  -0.368878  0.344424
-0.945348  -0.247488  0.212291
-0.909962  -0.384482  0.155381
-0.914866  -0.23564  0.327864
-0.935894  -0.248938  0.249265
-0.827394  -0.24896  0.503426
-0.704244  -0.191451  0.683657
0.833899  -0.188417  -0.51876
0.876669  -0.13216  -0.462585
0.948597  -0.098105  -0.300898
0.991809  -0.017323  -0.126553
0.879647  -0.183101  -0.438971
0.590304  0.356569  0.724155
0.762864  0.294755  0.575463
0.918815  0.203157  0.338389
0.97634  0.112257  0.184817
0.998232  0.013208  -0.057945
0.985657  -0.030549  -0.165974
0.484032  0.284617  0.82747
0.865599  -0.21032  -0.454428
0.728382  -0.313737  -0.609121
0.646851  -0.33139  -0.686851
0.718722  -0.276333  -0.638027
0.650037  -0.351962  -0.67348
0.160314  -0.317913  -0.934468
0.545235  -0.403729  -0.734658
0.517282  -0.32525  -0.7916
0.289925  -0.311864  -0.904812
0.000478  -0.278669  -0.960387
0.124726  -0.272127  -0.954144
-0.63275  -0.589004  -0.502694
-0.741846  -0.53865  -0.3994
-0.874252  -0.379867  -0.3023
-0.957334  -0.040405  0.286146
-0.822514  -0.11178  0.557652
-0.074381  -0.375494  -0.923835
-0.575068  -0.5682  -0.588596
-0.34799  -0.32121  -0.880753
-0.708818  -0.451239  -0.542181
-0.613449  -0.380292  -0.692141
-0.808673  -0.231915  0.540614
0.512864  0.166408  0.842187
0.460476  0.111851  0.880597
-0.171651  -0.054233  0.983664
0.501043  0.016429  0.865266
0.373426  0.065322  0.925357
0.195308  -0.044878  0.979715
0.071428  -0.008414  0.99741
-0.601996  -0.149512  0.784377
-0.329707  -0.080961  0.940605
-0.354322  -0.123801  0.926892
-0.926325  -0.369086  0.075477
-0.948415  -0.281318  0.146182
-0.884049  -0.426536  0.191114
-0.948981  -0.235596  0.209591
-0.916304  -0.375204  0.140035
-0.915471  -0.19435  0.352336
-0.696043  -0.069361  0.714642
-0.605861  -0.147049  0.781863
0.962128  -0.047944  -0.26835
0.856584  0.259259  0.446148
0.709111  0.293613  0.641056
0.791077  0.298747  0.533805
0.947728  0.139979  0.286734
0.833644  0.244368  0.4953
0.996069  0.009493  0.088067
0.998189  -0.005465  -0.059912
0.98712  0.017188  -0.159056
0.97229  -0.031649  -0.231626
0.671862  0.137141  0.727869
0.870868  -0.153832  -0.466825
0.941592  -0.115909  -0.31618
0.753565  -0.236384  -0.613403
0.780961  -0.191501  -0.594497
0.78843  -0.255103  -0.559732
0.658232  -0.376762  -0.651753
0.136068  -0.224463  -0.964936
0.201121  -0.218985  -0.954775
0.442083  -0.206986  -0.872765
0.357265  -0.147476  -0.922287
-0.0307  -0.15809  -0.986947
-0.179883  -0.193702  -0.964428
-0.828004  -0.304246  -0.471003
-0.993868  -0.107691  -0.025097
-0.922995  -0.257649  -0.285828
-0.985473  -0.008037  0.16964
-0.916071  -0.102525  0.387688
-0.304012  -0.168672  -0.937617
-0.385573  -0.131602  -0.913244
-0.493272  -0.117536  -0.861898
-0.649712  -0.261513  -0.713783
-0.695886  -0.429191  -0.575793
0.580936  0.074995  0.810487
0.615884  0.031928  0.78719
0.460962  0.198749  0.864877
-0.019591  0.061673  0.997904
0.141649  0.110052  0.983781
-0.415137  -0.071519  0.906943
-0.242671  0.088253  0.966086
-0.922993  -0.283102  0.260649
-0.977211  -0.163988  0.134786
-0.953183  -0.191596  0.233953
-0.884628  -0.257008  0.389076
-0.965487  0.011871  0.26018
-0.965119  -0.158617  0.208291
-0.93924  -0.03331  0.341642
-0.519793  -0.048751  0.8529
-0.880699  -0.167652  0.443015
-0.79457  -0.090559  0.600382
0.95132  -0.048112  -0.304427
0.96656  0.006795  -0.256352
0.949729  -0.030503  -0.311584
0.956327  -0.082572  -0.280392
0.752854  0.213141  0.622722
0.942119  0.074912  0.326804
0.865756  0.143378  0.479488
0.777916  0.142369  0.612027
0.982282  -0.012886  0.186967
0.98543  0.061539  0.15856
0.985  -0.021664  -0.171186
0.99571  0.066059  -0.06479
0.778386  0.059873  0.624925
0.728882  0.070367  0.681013
0.841396  -0.148934  -0.519491
0.940575  -0.065949  -0.33312
0.753891  -0.284647  -0.592135
0.669481  -0.211581  -0.71206
0.846584  -0.185674  -0.498818
-0.027253  0.169231  -0.9852
0.150981  -0.192978  -0.969517
0.353027  -0.056779  -0.933889
0.562815  -0.110592  -0.819152
0.500425  -0.022246  -0.865494
-0.231964  0.168618  -0.957998
-0.33719  -0.010166  -0.941382
-0.620352  -0.096049  -0.77842
-0.968888  -0.071986  -0.2368
-0.898037  -0.06614  -0.43492
-0.998131  6.3e-05  0.061118
-0.992654  -0.05067  0.109862
-0.982242  -0.01951  0.186602
-0.461118  -0.165197  -0.871826
-0.502175  -0.04708  -0.863483
-0.524969  -0.079311  -0.847418
0.757918  0.022324  0.651968
0.633615  0.073705  0.77013
0.550902  0.169976  0.817077
0.250237  0.221152  0.942589
0.510624  0.236065  0.826763
-0.159221  0.145527  0.976458
0.149385  0.15973  0.975792
-0.386598  0.25103  0.887427
-0.223152  0.242753  0.944073
-0.165026  0.288238  0.943231
-0.994683  0.027441  0.099262
-0.969029  -0.05402  0.240964
-0.991028  -0.010574  0.133237
-0.978267  0.120857  0.168487
-0.975568  0.127722  0.178758
-0.952194  0.199503  0.231355
-0.974024  0.166989  0.152945
-0.976754  0.205784  0.060037
-0.889026  0.118873  0.442156
-0.95238  -0.032951  0.303127
-0.750969  0.129464  0.647521
-0.640665  0.238374  0.729881
0.945554  -0.087104  -0.313591
0.905381  -0.131495  -0.403727
0.85843  0.059339  0.509486
0.911648  0.022926  0.410331
0.925209  0.033235  0.378
0.993485  0.066089  -0.092844
0.986339  0.144458  0.079161
0.952949  -0.002185  -0.303123
0.984602  -0.019842  -0.173682
0.986302  0.028463  -0.162472
0.995121  0.02642  -0.095063
0.786778  -0.12034  -0.605392
0.729429  -0.034876  -0.683167
0.856908  -0.051584  -0.512881
0.232114  0.184104  -0.955107
0.230102  0.736298  -0.636332
0.656433  -0.026703  -0.753912
0.584872  0.232974  -0.776948
0.333574  0.516643  -0.788549
-0.42621  0.431349  -0.795162
-0.48403  0.147851  -0.86247
-0.553774  -0.005799  -0.832647
-0.99458  0.10273  -0.016007
-0.935371  0.15863  -0.316096
-0.654306  0.090047  -0.75085
-0.996792  0.076572  0.023292
-0.599432  0.055311  -0.798512
0.861592  0.042967  0.50578
0.740246  0.03504  0.671423
0.831491  0.027515  0.554857
0.635594  0.159725  0.75532
0.303658  0.400945  0.864312
0.512317  0.412861  0.753045
0.020344  0.212391  0.976973
0.119933  0.329256  0.936593
-0.203802  0.402231  0.892567
-0.16027  0.513976  0.8427
-0.051115  0.471708  0.880272
-0.954489  0.297191  -0.025078
-0.976322  0.142099  0.163107
-0.94556  0.318147  0.06854
-0.865654  0.488098  0.111371
-0.947883  0.315007  0.047826
-0.957886  0.278726  -0.069033
-0.863794  0.487317  -0.127989
-0.603546  0.434784  0.668353
0.893512  0.053796  0.445806
0.902284  0.039421  0.429337
0.937581  0.200831  0.283915
0.881984  0.104001  0.45966
0.970656  0.219828  -0.097481
0.984974  0.16919  0.034665
0.938835  0.295087  0.177519
0.935634  0.259975  -0.238749
0.932274  0.195843  -0.304156
0.738285  0.066532  -0.6712
0.064289  0.720429  -0.690543
-0.03766  0.872812  -0.486602
-0.260406  0.664917  -0.700053
0.577301  0.337008  -0.74374
0.283938  0.792007  -0.540467
0.428932  0.619806  -0.657159
-0.356346  0.829878  -0.429325
-0.563105  0.467808  -0.681226
-0.946196  0.310716  -0.09038
-0.891599  0.380655  -0.245262
-0.777065  0.316363  -0.544137
-0.697348  0.206182  -0.686436
0.754174  0.224547  0.61709
0.809153  0.07449  0.582857
0.845949  0.174784  0.503807
0.628819  0.331234  0.703471
0.558689  0.533597  0.634934
0.386209  0.568326  0.726532
-0.186417  0.614447  0.766618
-0.229853  0.572404  0.787097
-0.160857  0.629414  0.760239
0.049786  0.568624  0.821089
-0.178142  0.573102  0.799887
-0.917895  0.382302  0.106366
-0.892281  0.450179  -0.034253
-0.872653  0.473688  -0.118728
-0.894728  0.342407  0.286739
-0.812023  0.583562  0.008613
-0.77398  0.631423  -0.047541
-0.442676  0.896353  -0.024261
-0.89357  0.343333  -0.289234
-0.830667  0.507482  -0.22903