<?xml version="1.0"?>
<VTKFile type="PolyData" version="0.1" byte_order="LittleEndian" compressor="vtkZLibDataCompressor">
	<PolyData>
		<Piece NumberOfPoints="635" NumberOfVerts="0" NumberOfLines="0" NumberOfStrips="0" NumberOfPolys="1278">
		<PointData Normals="Normals">
		<DataArray type="Float32" Name="Normals" NumberOfComponents="3" format="ascii">
-0.610428  -0.418945  -0.672208
-0.742464  -0.307692  -0.59504
-0.254063  -0.366397  -0.895101
-0.607351  0.124301  -0.784649
-0.696644  -0.584365  -0.416178
-0.657383  -0.578311  -0.483119
-0.71835  -0.36122  -0.594553
-0.393746  -0.686596  -0.611188
-0.347784  0.201974  -0.915561
-0.189967  -0.762838  -0.618054
-0.288745  -0.310933  -0.905509
-0.40044  0.314067  -0.860819
-0.493764  -0.54243  -0.679681
-0.659421  -0.214701  -0.720463
-0.549217  -0.639555  -0.537895
-0.5114  0.403291  -0.758833
-0.686407  0.02571  -0.726763
-0.245931  -0.351949  -0.903133
-0.284566  -0.706036  -0.648487
-0.197113  -0.592117  -0.781373
-0.187881  0.3361  -0.922896
-0.15322  0.243659  -0.957682
-0.243567  -0.745497  -0.62041
-0.427983  0.556991  -0.711753
-0.209913  0.705282  -0.677137
-0.591331  -0.335788  -0.733194
-0.292965  0.038311  -0.955355
-0.724632  0.275737  -0.631567
-0.599622  0.382546  -0.702931
-0.769588  -0.336566  -0.54264
-0.895291  -0.303138  -0.326437
-0.275944  0.821312  -0.499301
-0.301414  0.803195  -0.513835
-0.117554  -0.187181  -0.975266
-0.237339  -0.487165  -0.840441
-0.503856  -0.518638  -0.690756
-0.365004  -0.650807  -0.665749
0.083305  0.683733  -0.724962
-0.23041  0.290865  -0.928606
-0.234245  -0.092165  -0.967799
-0.357519  0.044975  -0.932822
-0.483992  -0.3054  -0.82005
-0.641894  -0.132104  -0.755329
-0.675136  -0.059991  -0.73525
-0.709354  0.099983  -0.697726
-0.746109  -0.374939  -0.550219
-0.43936  0.753893  -0.488474
-0.951817  0.238516  -0.192755
-0.975371  -0.092727  0.200135
-0.979595  0.083126  0.182984
-0.945535  -0.249967  -0.208518
-0.623954  -0.433032  -0.650511
-0.135194  0.956564  -0.258278
0.002256  0.955048  -0.296443
-0.259311  0.939033  -0.225775
-0.362949  -0.206763  -0.90858
-0.135421  -0.05111  -0.989469
-0.589343  -0.343722  -0.731115
-0.470174  -0.522116  -0.711569
0.228299  0.789479  -0.569739
-0.013958  0.589495  -0.807652
0.057428  0.960971  -0.270621
-0.25018  -0.414034  -0.875206
0.008598  0.476582  -0.879088
-0.650487  -0.383625  -0.655514
-0.862753  -0.371139  -0.343385
-0.265334  -0.565355  -0.781007
-0.873662  -0.341237  -0.346803
-0.556895  0.788808  -0.260097
-0.968204  -0.038169  0.247233
-0.939366  -0.081703  0.33304
-0.90391  0.296597  0.308184
-0.731583  0.66624  0.144606
-0.941452  -0.263292  0.210584
-0.81344  -0.581573  0.009439
0.068116  0.978979  -0.192248
0.190169  0.9261  -0.325845
0.18799  0.960739  -0.204059
-0.455577  0.887524  -0.068924
-0.195016  0.975244  -0.104251
-0.033882  0.995259  -0.091173
-0.273973  -0.079179  -0.958472
-0.094126  -0.192516  -0.976769
-0.169499  -0.625695  -0.76143
-0.331579  -0.091715  -0.938959
-0.218574  -0.587866  -0.778871
0.009049  -0.556462  -0.830824
-0.285022  -0.512073  -0.810274
-0.18914  -0.318097  -0.929
0.284832  0.89721  -0.337469
0.186267  0.941517  -0.280802
0.239778  0.865592  -0.439611
0.1748  0.728546  -0.662318
0.047281  0.996184  -0.073364
0.057534  0.065448  -0.996196
0.099302  0.272368  -0.957055
-0.898372  0.220872  0.379662
-0.878073  0.000776  0.478526
-0.761501  -0.379483  0.525462
0.187692  0.949908  -0.249894
0.146273  0.965784  -0.214161
-0.473754  0.874565  0.103413
-0.309333  0.949863  0.045531
-0.034395  0.98953  -0.140169
0.080767  0.991085  -0.105963
-0.084342  0.993084  -0.08168
0.040728  0.988458  -0.14592
-0.149688  0.988647  -0.01306
0.062786  -0.93634  -0.345434
0.391948  -0.706897  -0.58879
0.289861  0.892734  -0.344973
0.285521  0.924341  -0.253122
0.160322  0.963862  -0.212758
0.041325  0.98221  -0.183184
0.354975  0.85468  -0.378834
0.360177  0.736282  -0.572854
0.324197  0.487878  -0.810476
-0.814551  -0.580048  -0.007047
-0.71681  -0.603517  0.349214
-0.699004  -0.638476  0.322091
-0.456925  -0.827531  -0.326209
-0.387292  -0.899787  -0.200967
-0.687669  -0.70429  -0.176314
-0.765323  0.460639  0.449548
-0.802815  0.287445  0.522363
-0.769297  -0.00226  0.638887
-0.774913  -0.217779  0.593364
-0.633326  0.689806  0.350807
-0.615429  -0.396988  0.680917
-0.677777  -0.49754  0.541362
0.08224  0.980271  -0.179739
-0.418733  0.885649  0.200718
-0.192021  0.977829  -0.08354
-0.461878  0.853934  0.239719
-0.193963  -0.898748  -0.393231
0.024234  -0.979568  -0.199649
0.287523  -0.944089  -0.161326
0.323805  -0.943352  -0.072375
0.527063  -0.780072  -0.337184
0.297631  -0.508896  -0.807738
0.126729  -0.392606  -0.910934
0.56886  -0.704755  -0.423932
0.533267  -0.593679  -0.602637
0.377822  0.881921  -0.281898
0.321647  0.900276  -0.293338
0.260274  0.930404  -0.258079
0.502476  0.579429  -0.641701
0.468917  0.770684  -0.431465
0.450104  0.267165  -0.852073
0.228664  0.021487  -0.973268
-0.743336  -0.582844  0.328243
-0.527114  -0.590524  0.611091
-0.616696  -0.77999  0.106315
-0.105922  -0.988499  -0.107934
-0.745177  0.337272  0.575289
-0.695595  0.35039  0.627195
-0.706968  0.037199  0.706267
-0.663675  0.577296  0.475673
-0.575319  0.717794  0.392148
-0.5407  -0.395722  0.742326
-0.576008  -0.342297  0.742325
-0.574097  -0.549461  0.607047
0.235188  0.91469  -0.328676
0.022965  0.968491  -0.247986
0.010141  0.981448  -0.191458
-0.241059  0.969422  -0.04595
-0.642399  0.6421  0.418367
-0.585966  0.69817  0.411343
-0.690647  0.467036  0.552163
0.253254  -0.966289  0.046355
0.375798  -0.847047  -0.375882
0.510862  -0.852883  0.107749
0.525109  -0.835227  -0.163266
0.582215  -0.809196  -0.07891
0.621628  -0.310113  -0.719311
0.535735  -0.056808  -0.842473
0.792618  -0.178984  -0.582856
0.38721  0.863799  -0.322367
0.473868  0.823783  -0.311177
0.35723  0.879059  -0.31566
0.289039  0.895367  -0.338784
0.493706  0.752159  -0.436476
0.625037  0.505669  -0.594666
0.612189  0.332524  -0.717393
-0.456608  -0.764906  0.454345
-0.524698  -0.542595  0.655959
-0.301706  -0.621223  0.723226
-0.327792  -0.551536  0.767047
-0.254075  -0.936064  0.243372
-0.062442  -0.979277  0.192659
-0.677076  0.453417  0.579639
-0.658856  0.239845  0.71301
-0.658705  0.067118  0.749402
-0.414544  -0.478869  0.773846
-0.529466  -0.465386  0.709282
-0.488525  -0.38943  0.780825
0.142365  0.920858  -0.362979
0.00121  0.958473  -0.285179
-0.028648  0.962464  -0.269895
-0.683721  0.282354  0.672905
-0.657561  0.463272  0.594132
-0.498324  0.817343  0.289177
-0.676292  0.228463  0.70031
0.093779  -0.985695  0.140036
0.369305  -0.868851  0.329715
0.363152  -0.848978  0.383871
0.472391  -0.844741  0.251514
0.653005  -0.753768  -0.073612
0.572883  -0.810701  0.120702
0.810122  -0.453923  -0.371021
0.873723  -0.096058  -0.476845
0.356195  0.856879  -0.372671
0.310215  0.863605  -0.397433
0.312434  0.839906  -0.443783
0.67874  0.494491  -0.542947
0.5193  0.712662  -0.471636
0.366995  0.847179  -0.384192
0.751103  0.177347  -0.635919
-0.299965  -0.762749  0.572917
-0.147419  -0.774514  0.615139
-0.308999  -0.514057  0.800166
-0.262216  -0.576179  0.774119
-0.243524  -0.556038  0.794681
-0.194706  -0.574102  0.795296
-0.107259  -0.921421  0.373467
0.115371  -0.917979  0.37948
-0.598589  -0.068569  0.798116
-0.474021  -0.446379  0.758979
-0.330892  -0.574295  0.748796
0.081932  0.926262  -0.367867
0.354681  0.812736  -0.462235
0.290977  0.82734  -0.480458
-0.022088  0.94693  -0.32068
0.030828  0.949768  -0.311434
-0.02946  0.953547  -0.299799
-0.393927  0.9087  0.138152
-0.162517  0.973283  -0.162201
-0.663636  0.250103  0.705007
-0.643571  -0.009691  0.765325
-0.62377  0.614837  0.482584
-0.668878  0.370335  0.644557
0.286513  -0.835745  0.468446
0.53184  -0.828899  0.173416
0.34906  -0.867286  0.354925
0.595969  -0.795971  0.106072
0.821624  -0.552401  -0.140668
0.835763  0.160252  -0.525185
0.398053  0.810649  -0.42942
0.233727  0.860168  -0.453302
0.171829  0.894082  -0.413633
0.725533  0.456332  -0.515134
-0.212573  -0.618551  0.756444
-0.196577  -0.596395  0.778249
0.047353  -0.740752  0.670107
0.1258  -0.855906  0.501596
-0.430173  -0.561276  0.707051
-0.300014  -0.643708  0.704011
0.210115  0.859285  -0.466349
0.310042  0.803083  -0.508853
-0.0945  0.954448  -0.283016
0.073553  0.917601  -0.390637
0.086112  0.941185  -0.326736
0.072182  0.962435  -0.261742
-0.167305  0.983828  -0.063969
-0.164681  0.972903  -0.162297
-0.668461  0.18405  0.720615
-0.684988  0.484662  0.543962
-0.714104  0.177888  0.677061
0.269996  -0.850844  0.45074
0.216952  -0.823985  0.523431
0.566427  -0.815032  0.121996
0.5062  -0.849243  0.150158
0.540069  -0.836619  0.091626
0.321997  -0.8916  0.318382
0.164756  -0.839896  0.517137
0.920333  -0.154546  -0.359309
0.723976  -0.689656  -0.015292
0.902726  -0.332882  -0.272535
0.874901  0.075637  -0.478359
0.848818  0.206367  -0.486745
0.735771  0.438061  -0.516472
0.360622  0.80674  -0.468104
0.145418  0.902066  -0.406362
0.343162  0.79333  -0.502858
0.823627  0.273017  -0.497091
0.676978  0.468504  -0.567631
-0.091032  -0.772795  0.628093
-0.039947  -0.665439  0.745383
0.015416  -0.71663  0.697284
0.108989  -0.731183  0.673419
-0.650121  -0.108363  0.752064
-0.542858  -0.375416  0.751244
-0.437264  -0.56542  0.699357
-0.370912  -0.644721  0.6684
-0.22634  -0.756856  0.613139
0.304504  0.796079  -0.523006
-0.071422  0.945111  -0.318847
0.210122  0.852483  -0.478667
-0.059478  0.961727  -0.267478
-0.31903  0.947731  -0.005125
-0.462337  0.83408  0.300924
-0.65131  0.595314  0.470528
-0.733943  0.300975  0.608886
-0.66985  -0.03868  0.741488
-0.712445  0.072166  0.698007
0.14909  -0.795247  0.587668
0.449697  -0.873242  0.187674
0.162084  -0.89053  0.425071
-0.006178  -0.857774  0.51399
0.923762  -0.083409  -0.373775
0.86506  0.160133  -0.475425
0.87829  -0.447204  -0.169162
0.897289  -0.362823  -0.251459
0.80032  0.321881  -0.505847
0.337674  0.808855  -0.481384
0.1571  0.899112  -0.408555
0.229041  0.842183  -0.488127
0.848595  0.18943  -0.493966
0.916842  -0.202825  -0.343892
-0.092447  -0.824456  0.558324
-0.462635  -0.509413  0.725581
-0.372192  -0.645296  0.667133
-0.334698  -0.669064  0.663574
-0.197728  -0.786567  0.584993
-0.067352  -0.835907  0.544723
0.375121  0.73503  -0.564815
0.21603  0.826773  -0.519401
-0.159527  0.938941  -0.30486
0.038574  0.869894  -0.491728
0.283366  0.800556  -0.528029
-0.313036  0.919555  -0.237546
-0.671078  0.658043  0.341516
-0.725264  0.174995  0.66586
-0.600037  -0.227703  0.766882
-0.649533  -0.143256  0.746716
0.756483  -0.653919  -0.0111
0.689977  -0.723057  -0.033474
0.548576  -0.833975  0.059592
0.307253  -0.92014  0.242773
0.080694  -0.904279  0.419247
0.883104  -0.443278  -0.153728
0.663516  0.537004  -0.520936
0.907506  -0.042491  -0.417884
0.446003  0.773053  -0.451077
0.200926  0.888586  -0.412363
0.238084  0.890841  -0.386935
0.917807  -0.22572  -0.326619
0.853782  -0.502193  -0.137329
-0.241314  -0.729294  0.640232
-0.397446  -0.590295  0.702559
0.093939  -0.898867  0.428035
0.166078  -0.915981  0.365236
0.233383  0.790064  -0.566861
-0.111826  0.912407  -0.393712
-0.198007  0.91379  -0.354657
-0.169876  0.895299  -0.411804
-0.75863  0.301095  0.577773
-0.657182  0.552387  0.512816
-0.634932  0.762642  0.123447
-0.536019  0.834062  0.130479
-0.656797  -0.161485  0.736573
-0.527896  -0.384224  0.757428
-0.531531  -0.401491  0.745841
0.700347  -0.710955  -0.063699
0.799875  -0.583746  -0.139427
0.505185  -0.856128  0.108786
0.235297  -0.908833  0.344467
0.784068  0.309819  -0.53782
0.858407  -0.288649  -0.42405
0.878862  -0.398357  -0.262515
0.833854  -0.45847  -0.307395
0.616364  0.600997  -0.508821
0.322427  0.797172  -0.510448
0.317534  0.805816  -0.499833
-0.236986  -0.723745  0.648098
-0.390622  -0.583308  0.712156
-0.277226  -0.700543  0.65756
-0.458315  -0.521204  0.719927
-0.011374  -0.861758  0.507192
-0.227168  -0.733217  0.640927
0.302242  0.752841  -0.584706
-0.376363  0.87553  -0.302982
-0.245968  0.902554  -0.353406
-0.685908  0.727673  0.004639
0.002286  0.84031  -0.542101
0.089693  0.832196  -0.547179
0.146122  0.77043  -0.620553
-0.229594  0.875415  -0.425364
-0.81983  0.096026  0.564498
-0.687991  -0.122082  0.715377
-0.499416  -0.45884  0.734881
-0.597534  -0.295438  0.745433
0.782834  -0.591108  -0.194325
0.692  -0.71272  -0.114743
0.526056  -0.844782  0.098024
0.837766  0.101487  -0.536516
0.862816  -0.160487  -0.479366
0.814511  -0.196883  -0.545719
0.769749  -0.595463  -0.230023
0.436958  0.688098  -0.579301
0.347644  0.713565  -0.608251
0.291015  0.707537  -0.643974
-0.465098  -0.473332  0.748091
-0.376751  -0.5774  0.72434
-0.202116  -0.749124  0.630842
0.15764  -0.897729  0.411378
-0.381121  0.820955  -0.425182
-0.631983  0.757663  -0.162924
-0.862958  0.429687  0.265844
0.245718  0.722855  -0.645835
0.109842  0.813187  -0.571544
0.059956  0.744193  -0.665268
-0.116364  0.828349  -0.547995
0.013586  0.83289  -0.553271
0.080866  0.829835  -0.552118
0.202974  0.645372  -0.736408
-0.04356  0.761177  -0.64708
0.088023  0.711281  -0.697375
0.233373  0.708664  -0.665832
-0.274957  0.831677  -0.482403
-0.800907  0.00141  0.598787
-0.75692  -0.134648  0.639486
-0.654274  -0.313534  0.688202
-0.57813  -0.387743  0.717928
-0.52859  -0.365516  0.766153
-0.452552  -0.520639  0.72397
0.714411  -0.685678  -0.139507
0.745019  -0.63405  -0.207188
0.527698  0.49699  -0.688865
0.798696  -0.457374  -0.391016
0.738771  -0.633805  -0.229146
0.720935  -0.059687  -0.690428
0.733959  -0.603646  -0.311312
-0.434879  -0.513528  0.739709
-0.325736  -0.61244  0.720287
-0.208361  -0.714078  0.66834
-0.223735  -0.725384  0.650969
-0.029583  -0.846327  0.531841
-0.076209  -0.814519  0.575109
0.445119  -0.8701  0.211648
-0.568353  0.751559  -0.334863
0.255636  0.680455  -0.686754
0.372969  0.57071  -0.731563
0.027084  0.763677  -0.64503
-0.082855  0.658113  -0.748347
-0.22226  0.756283  -0.615335
-0.134216  0.743791  -0.654799
0.529291  0.195122  -0.825699
0.383105  0.538613  -0.750418
0.427308  0.440974  -0.789272
0.161544  0.538266  -0.827148
-0.042196  0.680049  -0.731951
-0.835797  0.140106  0.530862
-0.860306  -0.090468  0.501686
-0.671383  -0.360752  0.647381
0.637328  -0.770588  0.002517
0.660563  -0.744503  -0.096809
0.736807  -0.194638  -0.647481
0.728033  -0.632021  -0.265552
-0.299023  -0.645983  0.702347
-0.521686  -0.450538  0.724471
-0.236649  -0.652052  0.720295
-0.155049  -0.720293  0.67612
-0.034863  -0.809533  0.586038
0.042426  -0.863841  0.501974
0.302113  -0.900379  0.313121
-0.633132  0.691966  -0.346881
-0.902653  0.291773  0.316363
-0.027028  0.683352  -0.729589
0.068265  0.601859  -0.795679
-0.11086  0.572469  -0.812397
-0.219104  0.642264  -0.7345
-0.173112  0.682726  -0.709872
0.563558  -0.014673  -0.825946
0.443105  0.173515  -0.879517
0.398656  0.213366  -0.891935
0.103712  0.548821  -0.829481
-0.074444  0.588772  -0.804864
-0.883207  0.376207  0.280023
-0.904375  -0.086683  0.417842
-0.733189  -0.423848  0.531778
0.554341  -0.831476  0.036795
0.714166  -0.484437  -0.50526
0.615208  -0.788232  -0.014478
0.588948  -0.807537  -0.031998
0.537172  -0.821002  -0.193396
-0.183413  -0.779778  0.598586
-0.071001  -0.752124  0.655186
-0.467741  -0.613124  0.63663
-0.05803  -0.740834  0.669177
-0.000868  -0.806641  0.591041
0.10619  -0.872664  0.476635
0.039501  -0.84997  0.525347
0.326418  -0.895486  0.302582
-0.527597  0.773463  -0.35128
-0.682248  0.700853  -0.20819
-0.750946  0.646583  -0.134202
0.061224  0.718127  -0.693214
0.005711  0.674696  -0.738074
0.262805  0.728646  -0.632463
-0.02955  0.570336  -0.82088
-0.092365  0.857398  -0.506297
-0.006536  0.819201  -0.57347
0.708973  -0.529294  -0.466054
0.670692  -0.212522  -0.710639
0.179904  0.360472  -0.915256
0.678249  0.011922  -0.734736
-0.793147  0.447499  0.413114
-0.787319  -0.066613  0.612936
-0.565522  -0.491794  0.66206
-0.517871  -0.630492  0.578178
0.523441  -0.840743  0.138421
0.490827  -0.854965  0.167701
0.579236  -0.729684  -0.363382
-0.009001  -0.829299  0.558732
-0.227873  -0.796778  0.559659
-0.04017  -0.781728  0.622324
0.031663  -0.783944  0.620024
0.129717  -0.856981  0.498756
0.239876  -0.87887  0.412368
0.345239  -0.873447  0.343367
-0.092028  0.917654  -0.386578
-0.759985  0.621049  0.191625
0.258866  0.762563  -0.592863
0.373358  0.81342  -0.446039
0.431345  0.790792  -0.434269
0.221067  0.755581  -0.616626
0.232747  0.88944  -0.393351
0.072176  0.957247  -0.280122
0.749442  -0.602255  -0.275002
0.797128  -0.474211  -0.373779
0.678527  -0.646705  -0.348386
0.647739  -0.722433  -0.241918
0.293961  0.29466  -0.909265
-0.720839  0.281092  0.633544
-0.715347  0.488274  0.499867
-0.648692  0.017786  0.760843
-0.537429  -0.101442  0.837186
-0.34429  -0.575376  0.741894
0.411664  -0.887566  0.206783
0.439236  -0.898269  0.013608
0.275122  -0.961125  -0.023403
0.367796  -0.926001  -0.085142
0.038927  -0.802107  0.59591
0.113036  -0.740744  0.662209
-0.05823  -0.782874  0.619449
0.022322  -0.821604  0.569622
0.185847  -0.860457  0.474421
0.329614  0.867816  -0.37182
-0.372922  0.885621  0.276774
-0.721728  0.613317  0.320859
0.439775  0.854757  -0.275662
0.409309  0.908257  -0.086805
0.115148  0.969486  -0.216423
0.507141  0.710743  -0.487496
0.279099  0.960241  -0.006491
0.456579  0.880422  -0.128034
0.166144  0.982381  -0.085573
0.791669  -0.550661  -0.264639
0.771202  -0.605962  -0.195084
0.92038  -0.275367  -0.277622
0.838779  0.498428  -0.219133
-0.629548  0.324324  0.706033
-0.599713  0.190455  0.77722
-0.658715  0.495353  0.566321
-0.521621  0.035082  0.852456
-0.1266  -0.449617  0.884204
0.242317  -0.936373  0.253946
0.11463  -0.970049  0.21416
0.237454  -0.660744  0.712062
-0.035552  -0.70213  0.71116
0.268572  -0.385917  0.882574
-0.134708  -0.786616  0.602568
-0.055444  -0.804653  0.591151
-0.086099  -0.828313  0.55361
0.13061  -0.880837  0.455047
0.038839  0.975984  0.214351
0.554238  0.831496  -0.037867
0.407882  0.906456  -0.109404
0.306599  0.950617  0.048205
0.396415  0.864295  0.309595
0.405495  0.88841  0.215178
0.606861  0.779798  0.153734
0.671207  0.738342  0.065821
0.893201  -0.428673  -0.135758
0.734925  -0.670315  -0.102778
0.649393  -0.755881  -0.083265
0.420582  -0.906014  0.047433
0.997356  -0.061992  -0.037926
0.894409  0.447155  -0.009261
-0.518634  0.191998  0.83316
-0.525958  0.52277  0.67088
-0.438159  0.403613  0.80319
-0.179623  -0.178582  0.96739
0.244742  -0.51261  0.823002
0.034447  -0.898571  0.437473
0.382544  -0.895551  0.227265
-0.044394  -0.845865  0.531546
0.020428  -0.624989  0.780366
-0.053598  -0.67631  0.734665
0.181944  -0.40835  0.894509
0.546751  -0.178924  0.817954
0.11196  0.954189  0.277469
0.436963  0.857401  0.271896
0.678847  0.732936  0.0444
0.609779  0.487153  0.625181
0.707426  0.679899  0.193096
0.67031  0.487715  0.559301
0.479936  0.4948  0.724454
0.751695  0.579097  0.315597
0.791097  0.414274  0.450048
0.747071  0.656826  0.102296
0.972323  0.121505  0.199559
0.847895  -0.141238  0.511004
0.818335  -0.568744  -0.082811
0.95967  0.279794  0.027377
-0.170718  0.810891  0.559742
-0.090483  0.120063  0.988634
0.391567  -0.28725  0.874164
0.115816  -0.854746  0.505961
0.34802  -0.822387  0.450068
0.333881  -0.130036  0.933603
0.404454  0.223819  0.886748
0.701615  -0.126574  0.701224
0.054076  -0.696234  0.715775
0.046889  0.931433  0.360879
0.498134  0.577865  0.646478
0.397241  0.160478  0.903574
0.497941  0.227451  0.836852
0.658505  -0.701094  0.273566
0.640036  -0.765469  0.066408
-0.045767  0.53085  0.846229
0.341985  -0.478839  0.808554
0.420808  -0.098428  0.901794
0.443956  0.328168  0.833792
		</DataArray>
	</PointData>
	<Points>
		<DataArray type="Float32" NumberOfComponents="3" format="ascii">
-0.003751  -0.08468  0.030718
-0.004345  -0.084261  0.031223
-0.002963  -0.084552  0.030301
-0.004066  -0.083963  0.0308
-0.004017  -0.084868  0.031816
-0.004536  -0.084605  0.032461
-0.004712  -0.083986  0.031712
-0.00345  -0.085359  0.031644
-0.003538  -0.084066  0.030464
-0.002619  -0.084887  0.030491
-0.001782  -0.084518  0.030066
-0.003532  -0.083492  0.030651
-0.005026  -0.084476  0.032838
-0.003621  -0.085999  0.032304
-0.005431  -0.083975  0.032522
-0.00448  -0.08292  0.031352
-0.004944  -0.083221  0.03154
-0.003067  -0.086291  0.032057
-0.001791  -0.085462  0.031019
-0.002564  -0.085788  0.031513
-0.002547  -0.083229  0.030446
-0.002529  -0.083786  0.030286
-0.001882  -0.085055  0.03044
-0.004015  -0.082788  0.031215
-0.00341  -0.082689  0.030918
-0.004887  -0.085005  0.033169
-0.003658  -0.087218  0.032264
-0.005861  -0.082846  0.032506
-0.005294  -0.082878  0.032033
-0.005856  -0.08354  0.032547
-0.006267  -0.084243  0.03361
-0.004007  -0.082204  0.031747
-0.00455  -0.082132  0.032166
-0.002389  -0.086708  0.032002
-0.001805  -0.086484  0.031824
-0.000946  -0.086388  0.031327
-0.001118  -0.085412  0.030479
-0.002279  -0.082721  0.030639
-0.001798  -0.083751  0.030167
-0.000924  -0.084757  0.029844
-0.001311  -0.084297  0.02991
-0.005039  -0.085578  0.033486
-0.0047  -0.086109  0.033382
-0.004233  -0.086215  0.032969
-0.004206  -0.086843  0.032842
-0.003965  -0.087689  0.032355
-0.00525  -0.082396  0.032295
-0.006311  -0.082818  0.033141
-0.006302  -0.083958  0.034174
-0.00644  -0.083142  0.033937
-0.006332  -0.084756  0.034022
-0.005604  -0.085708  0.033843
-0.004062  -0.081971  0.0323
-0.003386  -0.082117  0.031821
-0.004883  -0.0819  0.032962
-0.001495  -0.086893  0.031878
-0.002179  -0.087342  0.032109
-0.000724  -0.087014  0.031445
-0.000586  -0.085981  0.03063
-0.001765  -0.082683  0.030845
-0.001331  -0.083343  0.030298
-0.00271  -0.082256  0.031338
-0.00046  -0.084957  0.029801
-0.000592  -0.083754  0.029975
-0.005419  -0.08636  0.033921
-0.004945  -0.086915  0.033649
-0.003357  -0.087944  0.032167
-0.004629  -0.08737  0.033146
-0.005886  -0.08241  0.032872
-0.006164  -0.083803  0.034906
-0.00607  -0.084476  0.034966
-0.0063  -0.083093  0.034464
-0.006144  -0.082449  0.033817
-0.006237  -0.085315  0.034306
-0.005979  -0.085787  0.034249
-0.003302  -0.081798  0.032871
-0.002125  -0.081914  0.033367
-0.00291  -0.082097  0.032076
-0.005652  -0.082047  0.033755
-0.004908  -0.081798  0.033593
-0.00372  -0.081714  0.033698
-0.001548  -0.087582  0.031945
-0.002588  -0.087883  0.032091
-0.002116  -0.088285  0.032117
-0.001279  -0.088043  0.031908
-0.000411  -0.08794  0.031421
7.8e-05  -0.086822  0.030683
0.00021  -0.086264  0.030342
1.7e-05  -0.085356  0.029834
-0.001567  -0.082346  0.031782
-0.002063  -0.082283  0.031478
-0.000672  -0.083083  0.030716
-0.00015  -0.083589  0.030145
-0.00226  -0.082133  0.03222
4e-05  -0.084717  0.029676
-6.2e-05  -0.084217  0.029747
-0.006082  -0.083231  0.03507
-0.005969  -0.083936  0.035529
-0.005949  -0.085742  0.034796
-0.001367  -0.081852  0.033967
-0.002261  -0.082134  0.032911
-0.005505  -0.081996  0.034273
-0.005007  -0.081784  0.034357
-0.004436  -0.08174  0.033832
-0.002512  -0.081715  0.033853
-0.004159  -0.081584  0.03483
-0.002895  -0.08162  0.035067
-0.003535  -0.081493  0.035943
-0.000991  -0.08855  0.032243
0.000528  -0.087501  0.031106
-0.000535  -0.082647  0.0318
-0.000773  -0.08232  0.03244
-0.000998  -0.082124  0.033134
-0.001466  -0.082105  0.032877
-1.7e-05  -0.083152  0.030879
0.00032  -0.083546  0.030385
0.000436  -0.084035  0.029984
-0.004712  -0.087534  0.03378
-0.004851  -0.087232  0.034403
-0.005228  -0.086699  0.034609
-0.003736  -0.088364  0.032843
-0.003508  -0.088624  0.033209
-0.004273  -0.088059  0.033109
-0.005799  -0.082705  0.035092
-0.00581  -0.083444  0.035689
-0.005692  -0.083918  0.035959
-0.005711  -0.084504  0.035752
-0.00544  -0.082281  0.035131
-0.005176  -0.084786  0.036194
-0.005627  -0.086092  0.034962
-0.00114  -0.081711  0.034907
-0.00458  -0.081719  0.035306
-0.002818  -0.081366  0.036474
-0.003986  -0.081647  0.036104
-0.00242  -0.0886  0.032512
-0.001669  -0.088771  0.032827
-0.000403  -0.088404  0.031913
-0.000409  -0.088515  0.032629
0.000989  -0.087465  0.031524
0.001084  -0.086338  0.03044
0.000824  -0.085892  0.029979
0.001795  -0.086891  0.031505
0.001645  -0.086464  0.030845
0.000216  -0.082637  0.032754
0.000266  -0.082405  0.03366
-0.000837  -0.082059  0.033665
0.000949  -0.084067  0.030246
0.000825  -0.083648  0.030712
0.001035  -0.084677  0.029965
0.000502  -0.085125  0.029693
-0.004554  -0.087639  0.034465
-0.004289  -0.087618  0.034904
-0.004012  -0.088362  0.033875
-0.00281  -0.088818  0.033117
-0.005555  -0.083018  0.035814
-0.005234  -0.08301  0.036214
-0.005063  -0.083728  0.036632
-0.004831  -0.08215  0.035867
-0.004419  -0.081851  0.035958
-0.005017  -0.085462  0.035901
-0.004752  -0.084308  0.036819
-0.005137  -0.086314  0.035305
0.000139  -0.082119  0.034234
-0.000259  -0.081525  0.035974
-0.001165  -0.081627  0.035542
-0.002211  -0.08102  0.037491
-0.003583  -0.08179  0.037241
-0.002494  -0.081187  0.037871
-0.004048  -0.082058  0.036837
-0.00118  -0.088803  0.033114
4.2e-05  -0.088201  0.031729
0.000418  -0.088093  0.033212
0.000606  -0.088057  0.03233
0.001528  -0.087347  0.032335
0.001663  -0.086009  0.030467
0.001054  -0.085442  0.029866
0.002029  -0.086049  0.030867
0.000719  -0.08301  0.032364
0.000707  -0.083383  0.031176
0.000793  -0.082844  0.032857
0.00192  -0.082872  0.033954
0.001442  -0.083846  0.031016
0.001537  -0.084289  0.030594
0.001488  -0.084699  0.030272
-0.004059  -0.088168  0.03445
-0.004504  -0.086961  0.035262
-0.003674  -0.087766  0.035169
-0.003778  -0.087232  0.035526
-0.003339  -0.088615  0.034114
-0.002443  -0.088897  0.033607
-0.00471  -0.082563  0.036487
-0.004038  -0.083207  0.037387
-0.004693  -0.083731  0.036998
-0.004432  -0.086153  0.035935
-0.005065  -0.085942  0.035633
-0.004528  -0.085499  0.036189
0.000632  -0.081502  0.036065
7.3e-05  -0.081352  0.036693
-0.001083  -0.081061  0.037557
-0.003462  -0.082281  0.037648
-0.002891  -0.081545  0.037816
-0.001793  -0.080941  0.038436
-0.00382  -0.082667  0.037453
-0.001916  -0.088836  0.033784
-0.000595  -0.08857  0.03379
-0.000138  -0.088128  0.034244
0.000353  -0.08783  0.034437
0.002075  -0.086943  0.032222
0.001463  -0.087248  0.033689
0.002289  -0.08648  0.031669
0.002338  -0.08579  0.031186
0.001056  -0.082225  0.03474
0.001788  -0.082449  0.035046
0.002574  -0.082927  0.034111
0.002212  -0.084279  0.03137
0.002094  -0.083832  0.031807
0.001587  -0.08349  0.031981
0.001973  -0.084897  0.030692
-0.003563  -0.088236  0.034755
-0.002902  -0.088319  0.034929
-0.003746  -0.086779  0.035827
-0.003027  -0.08643  0.036295
-0.002841  -0.087243  0.035731
-0.002702  -0.087872  0.0354
-0.002696  -0.088693  0.034263
-0.00185  -0.088694  0.034302
-0.00351  -0.083586  0.03791
-0.003293  -0.084499  0.03747
-0.002856  -0.085677  0.036925
0.001223  -0.081294  0.036755
0.001486  -0.081985  0.035564
0.001579  -0.081613  0.036265
0.001296  -0.080932  0.037782
0.00052  -0.080373  0.039397
0.001219  -0.080616  0.038974
-0.000627  -0.080495  0.039008
-0.00121  -0.080653  0.038385
-0.002576  -0.082039  0.03836
-0.002653  -0.082688  0.03851
-0.001294  -0.080849  0.038954
-0.00171  -0.081394  0.038929
-0.00122  -0.087968  0.03524
0.001139  -0.087304  0.034593
0.001095  -0.086904  0.035804
0.002148  -0.086812  0.033432
0.002609  -0.086488  0.032771
0.002331  -0.08481  0.031237
0.002206  -0.0834  0.032744
0.002299  -0.082155  0.035955
0.003042  -0.082202  0.035878
0.002628  -0.08409  0.032098
-0.001632  -0.086634  0.036609
-0.002299  -0.087477  0.035799
-0.001906  -0.087999  0.035413
-0.001913  -0.088433  0.034839
-0.001639  -0.084162  0.038786
-0.001934  -0.085975  0.03704
0.001872  -0.081324  0.0369
0.002454  -0.081754  0.036729
0.002295  -0.080414  0.039248
0.001925  -0.080879  0.037875
0.001246  -0.080249  0.039939
0.001718  -0.080019  0.040818
0.001242  -0.080041  0.040564
0.000481  -0.08021  0.039991
-0.001996  -0.082334  0.039031
-0.000815  -0.080835  0.03956
-0.001612  -0.08234  0.039387
-0.000137  -0.087795  0.034839
-0.00079  -0.087752  0.035379
0.002171  -0.086687  0.033999
0.002555  -0.086283  0.035408
0.002156  -0.086624  0.034653
0.001804  -0.086507  0.036244
0.000602  -0.086854  0.036198
0.002945  -0.085383  0.032289
0.002822  -0.086298  0.033332
0.003124  -0.085343  0.032788
0.002706  -0.085177  0.031821
0.002736  -0.084586  0.032034
0.002865  -0.08362  0.032953
0.004117  -0.08246  0.035827
0.003593  -0.08183  0.037164
0.00362  -0.082387  0.035631
0.003974  -0.083433  0.034657
0.004266  -0.082914  0.035368
-0.00079  -0.086398  0.03706
-0.00166  -0.087468  0.035917
-0.001164  -0.08691  0.036416
-0.001224  -0.087273  0.03607
-0.001978  -0.083269  0.039066
-0.001662  -0.08368  0.039115
-0.001002  -0.08434  0.039056
-0.001107  -0.085058  0.038342
-0.000194  -0.085705  0.038051
0.002649  -0.081224  0.037514
0.002753  -0.080317  0.039456
0.002973  -0.080923  0.038184
0.002055  -0.080213  0.040267
0.001881  -0.079923  0.041343
0.000864  -0.080215  0.041033
0.00114  -0.0803  0.041547
-0.000187  -0.081069  0.04057
-0.00118  -0.082527  0.039843
-0.000656  -0.081975  0.04032
-0.000625  -0.08738  0.035827
0.002776  -0.085875  0.036953
0.000814  -0.086398  0.037027
-0.000157  -0.086363  0.037163
0.003815  -0.084326  0.034127
0.003346  -0.084382  0.033209
0.003426  -0.085419  0.033959
0.003275  -0.085466  0.033441
0.004641  -0.082777  0.036006
0.004475  -0.082166  0.036656
0.004226  -0.081794  0.037267
0.003556  -0.081558  0.037729
0.003823  -0.083797  0.034225
0.004361  -0.084037  0.035483
0.000682  -0.085823  0.038062
-0.000249  -0.083757  0.04
-1.8e-05  -0.084437  0.039547
0.000789  -0.084267  0.040179
0.000986  -0.085098  0.039287
0.002192  -0.084777  0.040039
0.003137  -0.081255  0.037799
0.003895  -0.080231  0.039762
0.003178  -0.07991  0.040572
0.004926  -0.079342  0.041595
0.003543  -0.080896  0.038556
0.002756  -0.079667  0.041692
0.001956  -0.07988  0.041874
0.000171  -0.081239  0.041077
-0.000662  -0.082734  0.040239
0.000394  -0.081799  0.041325
0.003556  -0.085456  0.035251
0.003756  -0.085254  0.036291
0.003619  -0.085361  0.037185
0.003143  -0.085395  0.038318
0.001874  -0.085463  0.038795
0.003913  -0.084829  0.034985
0.004929  -0.082271  0.036917