<?xml version="1.0"?>
<VTKFile type="PolyData" version="0.1" byte_order="LittleEndian" compressor="vtkZLibDataCompressor">
	<PolyData>
		<Piece NumberOfPoints="309" NumberOfVerts="0" NumberOfLines="0" NumberOfStrips="0" NumberOfPolys="588">
		<PointData Normals="Normals">
		<DataArray type="Float32" Name="Normals" NumberOfComponents="3" format="ascii">
-0.241965  0.928387  0.282046
-0.421615  0.891295  0.166833
-0.67033  0.714611  0.199971
-0.776204  0.488631  0.398431
-0.649453  0.374399  0.661843
-0.390814  0.431251  0.813195
-0.16592  0.625156  0.76266
-0.101672  0.835461  0.540063
0.133272  0.89032  0.435395
-0.021126  0.997308  -0.07022
-0.330077  0.933471  -0.140289
-0.761722  0.635977  -0.123745
-0.924037  0.314799  0.216928
-0.755872  0.122545  0.643149
-0.340825  0.210203  0.916326
0.080834  0.456267  0.886164
0.226855  0.811746  0.538149
0.168803  0.921058  0.350939
0.082124  0.974772  -0.207547
-0.235549  0.878284  -0.416093
-0.784827  0.490265  -0.379061
-0.996652  0.062476  0.052741
-0.776039  -0.146179  0.61351
-0.224178  -0.064771  0.972393
0.281896  0.277214  0.918524
0.472616  0.720796  0.507038
0.438743  0.870076  0.224663
0.283568  0.855822  -0.432616
0.015634  0.885027  -0.465276
-0.624657  0.474151  -0.620472
-0.897849  -0.196578  -0.393985
-0.761345  -0.592749  0.262684
-0.256323  -0.565235  0.784097
0.53669  -0.260257  0.80264
0.738515  0.441236  0.50981
0.660496  0.743759  0.102798
0.644355  0.726915  -0.237491
0.023599  0.879573  -0.475179
-0.625617  0.509551  -0.590729
-0.912367  0.19254  -0.361268
-0.812395  -0.55353  -0.183355
-0.649047  -0.704337  0.287484
0.123341  -0.629996  0.766741
0.707297  -0.14096  0.69272
0.838022  0.473805  0.270608
0.759529  0.547506  -0.351216
0.936343  0.07256  -0.343506
0.846878  0.348061  -0.402059
0.187341  0.469829  -0.86265
-0.23838  0.268495  -0.93332
-0.778725  0.092855  -0.620455
-0.914913  -0.281887  -0.288917
-0.786499  -0.601681  -0.139281
-0.851565  -0.51215  0.111983
-0.303144  -0.45779  0.835782
0.39772  -0.368529  0.840241
0.683419  -0.398808  0.611466
0.9312  -0.099411  0.35069
0.99815  -0.008967  -0.060136
0.757891  0.195298  -0.622463
-0.442859  0.707933  0.550187
0.984627  -0.153851  -0.082701
0.962952  0.002947  0.269657
0.945927  -0.079786  -0.314413
0.947308  -0.144623  -0.285819
0.323654  -0.178891  -0.92911
0.373107  -0.240141  -0.896172
-0.440819  -0.135038  -0.88738
-0.315257  -0.282541  -0.905971
-0.915464  -0.072115  -0.395886
-0.796242  -0.220124  -0.563511
-0.994844  -0.067766  -0.07545
-0.945503  0.001099  0.325611
-0.867654  -0.101187  0.486763
-0.362844  -0.042362  0.930887
-0.157149  -0.149505  0.976193
0.467906  -0.037114  0.882999
0.719646  -0.160479  0.675542
0.96261  -0.055757  0.26509
0.972865  -0.231316  -0.005203
0.982466  -0.084589  -0.166146
0.981535  -0.031981  0.188592
0.885937  -0.04449  -0.461667
0.115208  -0.037877  -0.992619
-0.61036  -0.017562  -0.791929
-0.950644  0.004913  -0.310246
-0.964308  0.006572  0.264701
-0.546217  0.059954  0.835495
0.254958  0.036742  0.966254
0.829007  -0.025922  0.558637
0.994718  -0.025124  0.099525
0.989941  -0.039806  0.135769
0.893612  -0.060112  -0.444797
0.21801  -0.042508  -0.97502
-0.554327  -0.007801  -0.832263
-0.952176  0.000464  -0.305551
-0.945622  0.056378  0.320346
-0.276729  0.081357  0.957498
0.605274  0.016688  0.795842
0.909055  -0.039602  0.41479
0.954586  -0.022579  0.29708
0.923616  -0.081184  -0.374622
0.34109  -0.077575  -0.936824
-0.329519  -0.071182  -0.941462
-0.857923  -0.033758  -0.512668
-0.998439  0.031365  0.046206
-0.609832  0.072521  0.789205
0.429353  0.035802  0.902427
-0.764894  -0.405399  -0.500589
-0.77641  -0.492635  -0.393063
-0.971393  -0.197381  -0.132048
-0.929065  -0.354124  -0.10693
-0.920533  -0.221924  0.32151
0.391504  -0.215172  0.894665
0.711999  -0.367368  0.598413
0.716689  -0.471528  0.513826
0.874237  -0.477134  0.089734
0.892208  -0.45057  0.030852
0.808883  -0.376434  -0.45167
0.890101  -0.423324  0.168868
0.891317  -0.41514  -0.182242
0.882279  -0.192315  -0.42965
0.909237  -0.136289  -0.393336
0.933109  -0.259752  -0.24867
0.907367  -0.21342  -0.362129
0.306057  -0.190278  -0.932804
-0.380544  -0.362686  -0.850673
0.318574  -0.330503  -0.888413
-0.235764  -0.407481  -0.882255
0.402369  -0.113316  0.908438
0.216276  -0.387801  0.896011
-0.262611  -0.652644  0.710697
-0.298542  -0.926215  0.230215
0.074983  -0.737758  0.670888
0.344718  -0.764863  0.5442
-0.600094  0.023092  0.799596
-0.747168  -0.111063  0.65529
-0.735035  -0.654455  0.177237
-0.719649  -0.689121  0.084958
-0.740419  -0.488711  0.461456
-0.484463  -0.795245  0.364529
0.085201  0.658875  0.747411
-0.894608  0.346068  0.282691
-0.99106  0.012452  0.132834
-0.691517  -0.600558  0.401415
-0.944358  -0.148346  0.293565
-0.939052  -0.327945  0.10312
-0.109432  0.803846  0.584684
-0.995519  -0.041596  -0.084923
-0.987827  -0.111081  -0.108896
-0.914842  0.291406  -0.279546
-0.956325  0.291966  -0.01411
-0.843326  0.189985  0.5027
-0.74037  -0.08377  0.666959
-0.835304  -0.172746  -0.521944
-0.920294  0.110741  -0.375228
-0.086781  0.939184  0.332268
-0.724374  -0.134689  0.676122
-0.367458  -0.130611  0.920823
-0.507775  -0.174462  0.843639
0.85182  0.523639  -0.014296
-0.841676  -0.5031  -0.196141
-0.694816  -0.662222  -0.280521
-0.793453  -0.607858  -0.030671
-0.694432  -0.557535  0.454882
-0.476099  -0.4739  0.740775
-0.51877  -0.346975  0.781336
0.978328  -0.159539  -0.131989
-0.798819  -0.550527  0.242503
0.829924  0.503123  0.241026
0.738857  0.618423  -0.267663
0.70133  0.710032  -0.063173
0.622553  0.771087  0.133614
0.787753  0.61133  0.075634
0.885088  0.136826  0.444858
0.947331  0.181647  -0.263758
0.968711  0.237628  -0.071643
0.904933  0.410747  0.111278
0.883772  0.466501  -0.036394
0.852569  -0.371496  0.367583
0.904746  -0.315326  -0.286364
0.941129  -0.323709  -0.097406
0.94871  -0.290584  0.124542
0.9689  -0.242881  -0.047338
0.546025  -0.787578  -0.285618
0.57376  -0.79395  -0.201103
0.534371  -0.840657  0.087997
0.510192  -0.859474  0.031765
-0.14387  -0.944136  -0.296494
-0.120397  -0.983277  -0.13664
-0.047506  -0.992501  0.112631
0.067596  -0.993412  0.092539
-0.751091  -0.587499  -0.301175
-0.722285  -0.689261  -0.05677
-0.631867  -0.716261  0.296167
-0.568936  -0.822382  -0.00033
-0.9606  -0.146299  -0.236316
-0.966642  -0.254528  0.028613
-0.857656  -0.264803  0.440801
-0.890472  -0.424749  0.163238
0.710035  -0.508625  0.486981
0.683429  -0.238088  0.6901
0.816331  0.205356  0.539845
0.846203  0.358155  0.394546
0.696073  0.685778  -0.212584
0.821179  -0.174612  0.543301
0.786005  0.03773  0.617068
0.816454  -0.060255  0.574258
0.732578  0.510246  0.450532
0.962461  -0.242147  0.12261
0.985225  -0.043929  -0.165534
0.704197  0.558382  0.43854
0.930785  0.340753  0.132391
-0.467923  0.336732  -0.817104
-0.999076  -0.042835  -0.00357
-0.944865  -0.111212  0.307998
0.047043  0.483686  0.873976
-0.979213  -0.188544  0.074787
-0.956851  -0.103925  -0.271358
-0.848526  0.121085  -0.515114
-0.837348  -0.503961  -0.211829
-0.850658  -0.409592  -0.32957
-0.782532  -0.26555  -0.563141
-0.640367  0.008332  -0.768024
0.439317  0.61204  -0.657577
-0.660774  -0.734556  -0.154288
-0.501274  -0.640305  -0.582008
-0.251396  -0.496841  -0.830632
-0.196072  -0.290156  -0.936678
-0.033799  0.160406  -0.986472
-0.269436  -0.771981  -0.575717
-0.053993  -0.517273  -0.854116
0.148472  -0.168105  -0.974524
0.61007  0.724889  -0.319921
0.408025  0.17026  -0.896955
0.046951  -0.9964  0.070593
0.620239  -0.777421  0.104505
0.975552  -0.207031  0.073734
0.872972  0.444224  0.201458
0.671892  0.730514  0.122109
-0.218241  -0.974347  -0.054935
0.350171  -0.933821  0.073203
0.825083  -0.562775  0.050225
0.994194  -0.080934  0.070905
0.945104  0.307372  0.110907
0.656532  0.744358  0.12205
0.323149  0.94425  0.062985
-0.076772  -0.876381  -0.475461
0.307397  -0.655417  -0.689881
0.669972  -0.226073  -0.707127
0.734861  0.296481  -0.609982
0.568857  0.713629  -0.408823
-0.981359  0.190579  -0.024787
0.682279  0.729359  -0.05031
0.872274  0.442821  -0.20748
0.905862  0.25499  -0.338221
0.984874  0.084914  -0.151042
0.992939  0.10369  -0.05762
0.941983  0.215575  -0.257285
0.925266  0.378044  0.03107
0.819973  0.512067  -0.255796
0.680342  0.709262  -0.184613
0.544796  0.825912  0.145142
0.548692  0.835588  0.027031
0.86814  0.496204  0.010761
0.831372  0.434  0.347081
0.750196  0.62105  -0.226941
0.952495  -0.041923  0.301655
0.987109  -0.083437  0.136582
0.97963  -0.104837  0.171272
0.893032  0.240891  0.380087
0.911056  0.169028  -0.376041
0.792382  0.35187  -0.498316
0.951678  0.105219  0.288509
0.999143  0.041351  -0.002027
0.808929  0.00183  -0.587903
0.239201  0.155238  -0.95848
-0.979641  -0.038595  -0.197011
-0.957296  -0.084818  0.276387
-0.406128  0.099725  0.908358
0.619177  0.170148  0.766596
0.657723  0.101959  0.746327
0.993211  -0.028962  0.112661
0.955023  0.010542  0.296346
0.981101  -0.008132  -0.193325
0.930652  -0.060265  -0.360908
0.606895  0.009545  -0.794725
0.469673  -0.05983  -0.880811
-0.439364  0.052686  -0.896763
-0.332264  0.000635  -0.943186
-0.973364  -0.016781  -0.228649
-0.911411  0.035395  -0.409973
-0.903361  -0.030027  0.427828
-0.879859  0.090109  0.466613
-0.058423  0.069487  0.995871
-0.129454  0.076419  0.988636
0.525425  0.037066  0.850032
0.537427  0.032297  0.842692
0.725348  0.013743  0.688245
0.818898  0.006957  0.573896
0.932518  -0.009304  0.361005
0.938634  -0.087884  -0.33353
0.488334  -0.129456  -0.863001
-0.109388  -0.102396  -0.988711
-0.760028  -0.039507  -0.648688
-0.999868  0.012122  -0.01082
-0.619478  0.05062  0.78338
0.352019  0.04023  0.935128
0.813742  0.041891  0.579714
		</DataArray>
	</PointData>
	<Points>
		<DataArray type="Float32" NumberOfComponents="3" format="ascii">
-0.003244  0.022145  0.007029
-0.009188  0.021756  0.003054
-0.015251  0.017942  0.003615
-0.018212  0.012891  0.007792
-0.016575  0.009246  0.013576
-0.010928  0.009649  0.017587
-0.004086  0.014405  0.017265
-0.002427  0.019449  0.012335
-0.002748  0.022122  0.006969
0.002353  0.023356  0.002803
-0.007155  0.022663  -0.003832
-0.017598  0.015852  -0.002462
-0.02131  0.008721  0.004652
-0.017751  0.002869  0.014689
-0.008703  0.003965  0.020695
0.001233  0.01093  0.02008
0.004971  0.02004  0.011575
0.002739  0.023418  0.002639
0.00817  0.022454  -0.001271
-0.003993  0.02153  -0.010593
-0.018156  0.012355  -0.008206
-0.022899  0.002425  0.00232
-0.018077  -0.002902  0.01425
-0.005922  -0.000902  0.022249
0.006589  0.004748  0.020926
0.012041  0.017227  0.009431
0.008166  0.022208  -0.002045
0.011549  0.021347  -0.004581
0.000434  0.020121  -0.014291
-0.017473  0.010115  -0.010857
-0.022446  -0.000708  -0.00188
-0.01768  -0.007626  0.011885
-0.004088  -0.008184  0.021088
0.011399  0.000412  0.019046
0.015519  0.015315  0.00892
0.012084  0.020805  -0.005781
0.015023  0.015432  -0.008562
0.004268  0.017597  -0.020783
-0.009264  0.012481  -0.017274
-0.014553  0.0051  -0.012266
-0.018456  -0.005989  -0.001841
-0.014168  -0.010596  0.006234
-0.004545  -0.013629  0.015277
0.012713  -0.003616  0.013975
0.020082  0.010297  0.004429
0.015269  0.01582  -0.009177
0.016555  0.007919  -0.010461
0.016959  0.011885  -0.015338
0.007396  0.012197  -0.025325
-0.003283  0.008705  -0.026377
-0.013737  0.001648  -0.022501
-0.016766  -0.004063  -0.016965
-0.012606  -0.009845  -0.008658
-0.009881  -0.016235  0.0022
-0.002202  -0.020117  0.011343
0.013524  -0.010481  0.008362
0.021547  -0.004656  0.007384
0.025149  0.000617  0.001751
0.025735  0.003363  -0.003644
0.02402  0.006003  -0.007184
-0.010938  0.015935  0.012544
0.012182  -0.023823  -0.005011
0.01103  -0.041944  -0.002473
0.01275  -0.042884  -0.007851
0.013496  -0.025435  -0.011856
0.008526  -0.041976  -0.012286
0.01008  -0.027862  -0.014966
-0.000761  -0.042723  -0.012073
-0.000955  -0.029565  -0.014659
-0.007797  -0.042698  -0.005221
-0.005025  -0.02885  -0.011905
-0.007637  -0.0269  -0.003417
-0.00824  -0.043255  -0.001167
-0.007076  -0.026718  0.003651
-0.000496  -0.041919  0.00814
-0.000292  -0.0253  0.009993
0.008762  -0.0424  0.007335
0.011699  -0.023893  0.00603
0.011456  -0.042134  0.003658
0.013812  -0.024251  -0.000533
0.011026  -0.041941  -0.002471
0.011295  -0.070937  -0.000594
0.012629  -0.073147  -0.007015
0.003747  -0.0713  -0.010301
-0.006409  -0.071249  -0.005919
-0.007978  -0.071089  -0.00144
-0.007103  -0.070953  0.003238
-0.00193  -0.069544  0.008766
0.005248  -0.069828  0.008195
0.010276  -0.070448  0.004992
0.011294  -0.07099  -0.000586
0.009461  -0.096869  0.002659
0.010547  -0.099296  -0.005653
0.003011  -0.096196  -0.009137
-0.003479  -0.096289  -0.009406
-0.007278  -0.095051  -0.00545
-0.008139  -0.094138  0.002078
-0.002702  -0.094297  0.01124
0.004935  -0.096129  0.010073
0.00945  -0.09681  0.002643
0.008569  -0.119485  0.00424
0.00979  -0.11696  -0.004989
0.004835  -0.117444  -0.008255
-0.003266  -0.116925  -0.008734
-0.006328  -0.117512  -0.004643
-0.008821  -0.117296  0.003839
-0.006297  -0.117521  0.010624
0.002875  -0.118829  0.011929
-0.005818  -0.02094  -0.014888
-0.008856  -0.013017  -0.018095
-0.008528  -0.020831  -0.004821
-0.00935  -0.016567  -0.006621
-0.007876  -0.022418  0.003686
0.011849  -0.017701  0.006517
0.015308  -0.015891  0.005226
0.018906  -0.009752  0.005891
0.020639  -0.007164  0.002529
0.02189  -0.005532  -0.001109
0.023147  -0.003132  -0.00499
0.016395  -0.015339  0.002319
0.017376  -0.014082  -0.001727
0.01632  -0.00266  -0.00993
0.017201  -0.003261  -0.017416
0.013916  -0.014016  -0.00785
0.013998  -0.016768  -0.014428
0.006757  -0.00573  -0.024424
-0.007993  -0.006661  -0.024288
0.007661  -0.01851  -0.018617
-0.000738  -0.019969  -0.018286
7.3e-05  -0.282517  0.042841
-0.001307  -0.285146  0.043295
-0.000876  -0.290486  0.041449
0.002684  -0.293483  0.036206
0.00513  -0.293851  0.03073
0.011529  -0.3013  0.028188
-0.00266  -0.283083  0.043811
-0.004632  -0.285732  0.041886
-0.00584  -0.285337  0.036744
-0.004656  -0.285036  0.031411
-0.002703  -0.290263  0.027093
0.001644  -0.302885  0.025455
-4.8e-05  -0.275476  0.040749
-0.005837  -0.275374  0.032872
-0.00498  -0.283163  0.030496
-0.004352  -0.286292  0.025248
-0.004472  -0.289312  0.023766
-0.004438  -0.297099  0.022931
-0.000219  -0.27032  0.033987
-0.00568  -0.274132  0.025349
-0.005405  -0.291137  0.020941
-0.003259  -0.2886  0.015178
-0.00314  -0.288734  0.00955
-0.004918  -0.287426  0.002675
-0.008215  -0.286556  -0.000746
-0.000784  -0.276645  0.021792
0.00283  -0.278378  0.017336
0.004227  -0.279963  0.012833
0.001871  -0.279556  0.004865
-0.005255  -0.28059  0.000546
-0.007604  -0.281241  0.00056
0.009713  -0.278483  0.024464
-0.006093  -0.270213  0.019561
-0.001314  -0.273361  0.016955
0.000624  -0.274196  0.01163
-0.001128  -0.274224  0.006328
-0.004515  -0.274949  0.003621
-0.008726  -0.273296  0.00173
0.000543  -0.269516  0.019547
-0.00697  -0.266334  0.009127
0.015406  -0.284528  0.025336
0.013312  -0.283321  0.020058
0.012064  -0.284744  0.012793
0.01034  -0.28302  0.008705
0.008863  -0.281382  0.00419
0.01758  -0.289385  0.026864
0.015714  -0.288724  0.018685
0.013675  -0.288393  0.012535
0.013172  -0.285872  0.009064
0.013613  -0.285364  0.00584
0.017085  -0.294865  0.027418
0.015569  -0.293575  0.019386
0.013521  -0.292119  0.012723
0.014468  -0.292237  0.008933
0.014833  -0.292261  0.006123
0.011632  -0.299754  0.020103
0.010544  -0.297107  0.013407
0.010647  -0.296786  0.009133
0.009532  -0.29811  0.0046
0.004218  -0.30118  0.018558
0.003966  -0.29837  0.011211
0.003981  -0.298598  0.007254
0.003666  -0.299191  0.002382
-0.002499  -0.29684  0.018021
-0.000776  -0.295464  0.010884
-0.00054  -0.296957  0.00508
-0.001149  -0.298908  -1.8e-05
-0.003687  -0.29123  0.016841
-0.002755  -0.291286  0.009557
-0.004298  -0.291975  0.002914
-0.00701  -0.293095  -0.000731
0.005384  -0.291532  0.037754
0.00723  -0.291693  0.030575
0.00618  -0.28074  0.038444
0.008076  -0.279409  0.031089
0.009639  -0.278443  0.024458
0.006761  -0.28554  0.036787
0.008795  -0.286054  0.030469
0.006566  -0.290087  0.035287
0.00373  -0.266854  0.025257
0.006736  -0.264837  0.016813
0.006186  -0.262338  0.012123
0.00369  -0.27334  0.034135
0.005615  -0.271728  0.027749
-0.007667  -0.2609  -0.010428
-0.011129  -0.261075  0.000199
-0.008536  -0.259852  0.015319
-0.001495  -0.260297  0.02535
-0.010141  -0.279368  -0.004475
-0.01011  -0.273404  -0.009054
-0.009356  -0.265051  -0.011089
-0.005826  -0.290703  -0.005216
-0.005376  -0.291468  -0.010361
-0.005761  -0.286223  -0.013935
-0.005254  -0.279402  -0.01658
-0.004235  -0.270576  -0.014945
-0.000776  -0.297935  -0.007316
-0.001011  -0.294387  -0.01398
0.001717  -0.29023  -0.018066
0.00061  -0.286407  -0.019544
-0.00033  -0.28183  -0.020771
0.002317  -0.297589  -0.011059
0.007459  -0.295108  -0.014537
0.010172  -0.289351  -0.016043
0.008882  -0.280127  -0.015309
0.009263  -0.283447  -0.016698
0.005068  -0.299011  -0.001932
0.009922  -0.297249  -1.4e-05
0.013551  -0.292249  0.002188
0.013115  -0.286306  0.00126
0.00944  -0.282017  -0.00079
0.003432  -0.299874  -0.006789
0.011076  -0.299271  -0.006353
0.015577  -0.295345  -0.006527
0.016858  -0.291095  -0.005933
0.016818  -0.28669  -0.006324
0.013095  -0.281182  -0.006746
0.008211  -0.278995  -0.007128
0.006782  -0.299695  -0.010843
0.011682  -0.296932  -0.013931
0.014112  -0.291093  -0.016133
0.014688  -0.285734  -0.015138
0.011296  -0.28128  -0.014078
-0.000979  -0.298563  -0.004093
0.004632  -0.278044  -0.011244
0.002939  -0.274501  -0.00829
0.003082  -0.272393  -0.004595
0.006112  -0.266775  0.00741
0.006751  -0.271682  0.006277
0.00407  -0.274857  -0.001301
0.008  -0.278592  0.004304
0.00537  -0.277938  -0.000189
0.007513  -0.280087  2.9e-05
0.005973  -0.278931  -0.009821
0.006291  -0.279137  -0.003778
0.004212  -0.27752  -0.005751
0.006441  -0.28008  0.008673
0.006099  -0.280151  0.017543
0.005123  -0.272035  0.009627
0.004907  -0.271847  0.014437
0.005456  -0.266769  0.012823
0.006  -0.26102  0.015902
0.005545  -0.262529  0.007731
0.00228  -0.262817  -0.000811
0.003717  -0.246915  0.014849
0.005378  -0.245431  0.008828
0.00155  -0.245784  0.001498
-0.009665  -0.244816  -0.005731
-0.012037  -0.242822  0.001386
-0.011241  -0.242399  0.011966
-0.003615  -0.247872  0.021303
0.000268  -0.246665  0.017915
0.003721  -0.246949  0.014852
0.00538  -0.192929  0.010625
0.003402  -0.226637  0.013316
0.005137  -0.22697  0.007943
0.005411  -0.194794  0.004278
-0.000305  -0.225814  0.000853
0.000466  -0.19389  -0.000268
-0.010525  -0.226541  -0.003325
-0.007298  -0.19338  -0.001301
-0.013335  -0.226722  0.003529
-0.013444  -0.193071  0.00446
-0.012748  -0.227827  0.01298
-0.012463  -0.192921  0.012504
-0.005256  -0.227419  0.018903
-0.00242  -0.192819  0.017128
-0.001158  -0.228425  0.017326
0.002633  -0.193354  0.01493
0.003408  -0.226693  0.013317
0.005355  -0.193003  0.010619
0.007425  -0.150734  0.007848
0.007986  -0.152205  0.000563
0.004291  -0.151938  -0.003414
0.000289  -0.15133  -0.005056
-0.005137  -0.148847  -0.003371
-0.010171  -0.147607  0.003716
-0.008081  -0.148241  0.012067
0.001852  -0.148773  0.014361
0.008472  -0.1195  0.004121
		</DataArray>
	</Points>
			<Polys>
				<DataArray type="Int32" Name="connectivity" format="ascii">
0  9  10
0  10  1
1  10  11
1  11  2
2  11  12
2  12  3
3  12  13
3  13  4
4  13  14
4  14  5
5  14  15
5  15  6
6  15  16
6  16  7
7  16  17
7  17  8
9  18  19
9  19  10
10  19  20
10  20  11
11  20  21
11  21  12
12  21  22
12  22  13
13  22  23
13  23  14
14  23  24
14  24  15
15  24  25
15  25  16
16  25  26
16  26  17
18  27  28
18  28  19
19  28  29
19  29  20
20  29  30
20  30  21
21  30  31
21  31  22
22  31  32
22  32  23
23  32  33
23  33  24
24  33  34
24  34  25
25  34  35
25  35  26
27  36  28
36  37  28
28  37  29
37  38  29
29  38  30
38  39  30
39  40  30
30  40  31
40  41  31
31  41  32
41  42  32
32  42  33
42  43  33
33  43  34
43  44  34
34  44  35
44  45  35
46  47  36
36  47  37
47  48  37
37  48  38
48  49  38
49  50  38
38  50  39
50  51  39
39  51  40
51  52  40
52  53  40
40  53  41
53  54  41
41  54  42
54  55  42
55  56  42
42  56  43
56  57  43
43  57  44
57  58  44
58  59  44
44  59  45
59  46  45
0  60  7
7  60  6
6  60  5
5  60  4
4  60  3
3  60  2
2  60  1
1  60  0
61  62  63
61  63  64
64  63  65
64  65  66
66  65  67
66  67  68
68  67  69
68  69  70
70  69  71
71  69  72
71  72  73
73  72  74
73  74  75
75  74  76
75  76  77
77  76  78
77  78  79
79  78  80
79  80  61
62  81  82
62  82  63
63  82  83
63  83  65
65  83  84
65  84  67
67  84  85
67  85  69
69  85  86
69  86  72
72  86  87
72  87  74
74  87  88
74  88  76
76  88  89
76  89  78
78  89  90
78  90  80
81  91  92
81  92  82
82  92  93
82  93  83
83  93  94
83  94  84
84  94  85
85  94  95
85  95  86
86  95  96
86  96  87
87  96  97
87  97  88
88  97  98
88  98  89
89  98  99
89  99  90
91  100  101
91  101  92
92  101  102
92  102  93
93  102  103
93  103  94
94  103  104
94  104  95
95  104  105
95  105  96
96  105  106
96  106  97
97  106  107
97  107  98
98  107  100
98  100  99
70  71  110
70  110  108
108  110  111
108  111  109
109  111  52
109  52  51
71  73  112
71  112  110
110  112  111
111  112  53
111  53  52
73  75  112
112  75  54
112  54  53
77  113  75
75  113  54
113  55  54
77  114  113
114  115  113
113  115  55
115  56  55
56  115  116
56  116  57
57  116  117
57  117  58
58  117  118
58  118  59
115  114  119
115  119  116
116  119  117
117  119  120
117  120  118
114  77  119
119  77  79
119  79  120
59  118  121
59  121  46
46  121  122
46  122  47
118  120  123
118  123  121
121  123  124
121  124  122
120  79  61
120  61  123
123  61  64
123  64  124
47  122  125
47  125  48
48  125  49
49  125  126
49  126  50
50  126  109
50  109  51
122  124  127
122  127  125
125  127  128
125  128  126
126  128  108
126  108  109
124  64  66
124  66  127
127  66  68
127  68  128
128  68  70
128  70  108
129  135  136
129  136  130
130  136  137
130  137  131
131  137  138
131  138  132
132  138  139
132  139  133
133  139  140
133  140  134
135  141  142
135  142  136
136  142  143
136  143  137
137  143  144
137  144  138
138  144  145
138  145  139
139  145  146
139  146  140
141  147  142
142  147  148
142  148  143
143  148  149
143  149  144
144  149  145
145  149  146
148  154  149
149  154  150
154  155  150
150  155  151
155  156  151
151  156  152
156  157  152
157  158  152
152  158  153
158  159  153
148  161  162
148  162  154
154  162  163
154  163  155
155  163  156
156  163  164
156  164  157
157  164  165
157  165  158
158  165  166
158  166  159
161  168  162
162  168  163
163  168  164
164  168  165
165  168  166
169  174  175
169  175  170
170  175  176
170  176  171
171  176  177
171  177  172
172  177  178
172  178  173
174  179  180
174  180  175
175  180  181
175  181  176
176  181  182
176  182  177
177  182  183
177  183  178
179  134  184
179  184  180
180  184  185
180  185  181
181  185  186
181  186  182
182  186  187
182  187  183
134  140  188
134  188  184
184  188  189
184  189  185
185  189  190
185  190  186
186  190  191
186  191  187
140  146  192
140  192  188
188  192  193
188  193  189
189  193  194
189  194  190
190  194  195
190  195  191
146  149  196
146  196  192
192  196  197
192  197  193
193  197  198
193  198  194
194  198  199
194  199  195
149  150  196
196  150  151
196  151  197
197  151  152
197  152  198
198  152  153
198  153  199
131  132  200
200  132  133
200  133  201
201  133  134
201  134  179
129  130  205
129  205  202
202  205  206
202  206  203
203  206  169
203  169  204
130  131  207
130  207  205
205  207  201
205  201  206
206  201  174
206  174  169
131  200  207
207  200  201
201  179  174
147  141  211
147  211  208
208  211  212
208  212  209
209  212  167
209  167  210
141  129  202
141  202  211
211  202  203
211  203  212
212  203  160
212  160  167
214  168  215
168  161  215
161  148  215
215  148  216
148  147  216
217  168  214
217  214  218
218  214  219
219  214  213
199  153  217
199  217  220
220  217  221
221  217  218
221  218  222
222  218  219
222  219  223
223  219  213
223  213  224
195  199  220
195  220  225
225  220  221
225  221  226
226  221  227
227  221  222
227  222  228
228  222  223
228  223  229
229  223  224
225  226  230
230  226  227
230  227  231
231  227  232
232  227  228
232  228  234
234  228  229
234  229  233
233  229  224
240  241  235
235  241  236
241  242  236
236  242  237
242  243  237
237  243  238
243  244  238
244  245  238
238  245  239
245  246  239
240  247  241
241  247  248
241  248  242
242  248  249
242  249  243
243  249  250
243  250  244
244  250  245
245  250  251
245  251  246
225  252  195
195  225  235
235  225  240
240  225  230
240  230  247
247  230  231
247  231  248
248  231  232
248  232  249
249  232  250
250  232  234
250  234  251
251  234  233
233  224  253
253  224  254
254  224  255
256  257  258
256  258  255
257  259  260
257  260  258
259  261  260
259  173  239
259  239  261
173  178  238
173  238  239
178  183  237
178  237  238
183  187  236
183  236  237
187  191  235
187  235  236
191  195  235
251  233  246
233  262  246
262  263  246
246  263  239
263  261  239
233  253  264
233  264  262
262  264  263
263  264  260
263  260  261
253  254  264
264  254  258
264  258  260
254  255  258
173  259  265
173  265  172
172  265  156
172  156  171
171  156  266
171  266  170
170  266  204
170  204  169
259  257  267
259  267  265
265  267  156
156  267  268
156  268  266
266  268  167
266  167  204
257  256  269
257  269  267
267  269  268
268  269  209
268  209  167
256  210  269
209  210  269
216  147  208
216  208  270
270  208  209
270  209  210
210  256  271
271  256  255
271  255  272
272  255  224
272  224  213
273  270  274
270  210  274
274  210  275
210  271  275
275  271  276
271  272  276
272  213  276
276  213  277
213  214  277
277  214  278
214  215  278
278  215  279
215  216  279
279  216  280
216  270  280
280  270  281
282  283  284
282  284  285
285  284  286
285  286  287
287  286  288
287  288  289
289  288  290
289  290  291
291  290  292
291  292  293
293  292  294
293  294  295
295  294  296
295  296  297
297  296  298
297  298  299
283  273  274
283  274  284
284  274  275
284  275  286
286  275  276
286  276  288
288  276  277
288  277  290
290  277  278
290  278  292
292  278  279
292  279  294
294  279  280
294  280  296
296  280  281
296  281  298
300  282  285
300  285  301
301  285  287
301  287  302
302  287  289
302  289  303
303  289  291
303  291  304
304  291  293
304  293  305
305  293  295
305  295  306
306  295  297
306  297  307
307  297  299
307  299  300
100  300  301
100  301  101
101  301  302
101  302  102
102  302  303
102  303  103
103  303  304
103  304  104
104  304  305
104  305  105
105  305  306
105  306  106
106  306  307
106  307  107
107  307  300
107  300  308
166  217  159
217  153  159
				</DataArray>
				<DataArray type="Int32" Name="offsets" format="ascii">
					3 6 9 12 15 18 21 24 27 30 33 36 39 42 45 48 51 54 57 60 63 66 69 72 75 78 81 84 87 90 93 96 99 102 105 108 111 114 117 120 123 126 129 132 135 138 141 144 147 150 153 156 159 162 165 168 171 174 177 180 183 186 189 192 195 198 201 204 207 210 213 216 219 222 225 228 231 234 237 240 243 246 249 252 255 258 261 264 267 270 273 276 279 282 285 288 291 294 297 300 303 306 309 312 315 318 321 324 327 330 333 336 339 342 345 348 351 354 357 360 363 366 369 372 375 378 381 384 387 390 393 396 399 402 405 408 411 414 417 420 423 426 429 432 435 438 441 444 447 450 453 456 459 462 465 468 471 474 477 480 483 486 489 492 495 498 501 504 507 510 513 516 519 522 525 528 531 534 537 540 543 546 549 552 555 558 561 564 567 570 573 576 579 582 585 588 591 594 597 600 603 606 609 612 615 618 621 624 627 630 633 636 639 642 645 648 651 654 657 660 663 666 669 672 675 678 681 684 687 690 693 696 699 702 705 708 711 714 717 720 723 726 729 732 735 738 741 744 747 750 753 756 759 762 765 768 771 774 777 780 783 786 789 792 795 798 801 804 807 810 813 816 819 822 825 828 831 834 837 840 843 846 849 852 855 858 861 864 867 870 873 876 879 882 885 888 891 894 897 900 903 906 909 912 915 918 921 924 927 930 933 936 939 942 945 948 951 954 957 960 963 966 969 972 975 978 981 984 987 990 993 996 999 1002 1005 1008 1011 1014 1017 1020 1023 1026 1029 1032 1035 1038 1041 1044 1047 1050 1053 1056 1059 1062 1065 1068 1071 1074 1077 1080 1083 1086 1089 1092 1095 1098 1101 1104 1107 1110 1113 1116 1119 1122 1125 1128 1131 1134 1137 1140 1143 1146 1149 1152 1155 1158 1161 1164 1167 1170 1173 1176 1179 1182 1185 1188 1191 1194 1197 1200 1203 1206 1209 1212 1215 1218 1221 1224 1227 1230 1233 1236 1239 1242 1245 1248 1251 1254 1257 1260 1263 1266 1269 1272 1275 1278 1281 1284 1287 1290 1293 1296 1299 1302 1305 1308 1311 1314 1317 1320 1323 1326 1329 1332 1335 1338 1341 1344 1347 1350 1353 1356 1359 1362 1365 1368 1371 1374 1377 1380 1383 1386 1389 1392 1395 1398 1401 1404 1407 1410 1413 1416 1419 1422 1425 1428 1431 1434 1437 1440 1443 1446 1449 1452 1455 1458 1461 1464 1467 1470 1473 1476 1479 1482 1485 1488 1491 1494 1497 1500 1503 1506 1509 1512 1515 1518 1521 1524 1527 1530 1533 1536 1539 1542 1545 1548 1551 1554 1557 1560 1563 1566 1569 1572 1575 1578 1581 1584 1587 1590 1593 1596 1599 1602 1605 1608 1611 1614 1617 1620 1623 1626 1629 1632 1635 1638 1641 1644 1647 1650 1653 1656 1659 1662 1665 1668 1671 1674 1677 1680 1683 1686 1689 1692 1695 1698 1701 1704 1707 1710 1713 1716 1719 1722 1725 1728 1731 1734 1737 1740 1743 1746 1749 1752 1755 1758 1761 1764 
				</DataArray>
			</Polys>
		</Piece>
	</PolyData>
</VTKFile>
