<?xml version="1.0"?>
<VTKFile type="PolyData" version="0.1" byte_order="LittleEndian" compressor="vtkZLibDataCompressor">
	<PolyData>
		<Piece NumberOfPoints="1884" NumberOfVerts="0" NumberOfLines="0" NumberOfStrips="0" NumberOfPolys="3725">
		<PointData Normals="Normals">
		<DataArray type="Float32" Name="Normals" NumberOfComponents="3" format="ascii">
-0.361612  -0.931783  0.031876
-0.379724  -0.862319  0.334985
-0.367983  -0.853429  0.369116
-0.33367  -0.924044  0.186567
-0.307255  -0.951601  -0.007047
-0.258443  -0.921689  -0.289304
-0.203394  -0.909589  -0.362324
-0.171415  -0.967303  -0.186929
-0.390914  -0.765127  0.511631
-0.458537  -0.757703  0.46436
-0.486468  -0.780331  0.392978
-0.330308  -0.915198  0.230888
-0.160753  -0.97072  0.178495
-0.253875  -0.794759  0.551277
-0.149439  -0.988016  0.038642
-0.290689  -0.952085  -0.095043
-0.206038  -0.912798  -0.352629
-0.113604  -0.835531  -0.53757
0.07289  -0.828982  -0.554506
0.067019  -0.943938  -0.323248
-0.368825  -0.695739  0.616373
-0.486199  -0.652578  0.581165
-0.550022  -0.698432  0.457897
-0.56743  -0.689347  0.450359
-0.533184  -0.638821  0.554638
-0.381481  -0.918068  0.107809
-0.472376  -0.82396  0.31297
-0.553066  -0.644934  0.527425
-0.067736  -0.994273  0.082668
0.113321  -0.925918  -0.360324
-0.129828  -0.899255  0.417714
-0.069809  -0.867604  0.492331
-0.148817  -0.897278  0.415627
-0.29783  -0.91938  -0.256978
-0.126716  -0.907103  -0.401381
0.074398  -0.791195  -0.607023
0.262569  -0.677326  -0.687232
-0.126772  -0.806746  0.57714
-0.557022  -0.534125  0.635954
-0.501929  -0.625796  0.597031
-0.391024  -0.588166  0.707927
-0.136103  -0.696579  0.704453
-0.649661  -0.53798  0.537138
-0.65817  -0.680229  0.322648
-0.701936  -0.582957  0.409203
-0.54101  -0.795844  0.27192
-0.416969  -0.908536  0.026442
0.099688  -0.98721  -0.12441
0.025451  -0.999029  0.035959
0.243065  -0.956875  -0.15909
0.310379  -0.869284  -0.384721
0.330467  -0.818983  -0.469103
0.36965  -0.631878  -0.681241
-0.046231  -0.963232  0.264666
0.11647  -0.974489  0.191847
0.26197  -0.954008  0.145744
0.177419  -0.858552  0.481052
-0.314012  -0.908388  -0.276094
-0.207093  -0.849257  -0.485669
-0.165854  -0.835097  -0.524505
-0.044429  -0.839657  -0.541298
0.122606  -0.783137  -0.609642
0.324939  -0.622352  -0.712105
0.433599  -0.455583  -0.777455
-0.473621  -0.523411  0.708325
-0.714937  -0.39044  0.580019
-0.525937  -0.37572  0.763037
-0.34955  -0.57077  0.742991
-0.382985  -0.402853  0.831283
0.205787  -0.731165  0.650422
0.262139  -0.575567  0.774601
-0.259796  -0.537199  0.802448
-0.179157  -0.566379  0.804437
0.026715  -0.527084  0.849393
-0.699659  -0.498879  0.511464
-0.772081  -0.606035  0.191341
-0.585477  -0.790079  0.181637
-0.700435  -0.704193  0.116201
-0.764204  -0.454193  0.45793
-0.843556  -0.467923  0.263555
-0.47668  -0.879057  0.005956
0.187975  -0.976798  -0.102618
0.413233  -0.604276  -0.681241
0.381112  -0.820076  -0.426884
0.414618  -0.620743  -0.66541
0.332336  -0.941053  -0.063019
0.299918  -0.950974  0.075485
0.394125  -0.877166  -0.274309
0.423471  -0.842813  -0.332172
0.350482  -0.767974  0.536076
0.337715  -0.92232  0.187812
-0.343706  -0.903783  -0.255034
-0.127543  -0.881183  -0.455247
-0.115237  -0.807198  -0.578923
-0.043303  -0.83208  -0.552962
0.072568  -0.757133  -0.649218
0.183245  -0.754563  -0.630124
0.359799  -0.620031  -0.697213
0.541145  -0.416112  -0.730762
0.45183  -0.420421  -0.786827
0.499025  -0.410671  -0.763102
0.377554  -0.394429  -0.837782
0.411408  -0.475554  -0.777555
0.457695  -0.59684  -0.659013
-0.8345  -0.309905  0.455597
-0.831336  -0.286245  0.476388
-0.681789  -0.297509  0.668321
-0.769241  -0.296772  0.565858
-0.515835  -0.251628  0.818901
-0.447839  -0.296753  0.843432
-0.404703  -0.264429  0.875382
-0.34187  -0.473107  0.81197
-0.364564  -0.216062  0.905765
-0.253084  -0.383667  0.888115
-0.33372  -0.258116  0.906646
-0.286784  -0.303218  0.908743
0.478226  -0.629178  0.612728
0.2478  -0.373802  0.893794
0.336073  -0.381928  0.860921
0.389794  -0.500119  0.773267
0.371974  -0.409627  0.832971
-0.11659  -0.428436  0.896019
0.13539  -0.256228  0.957087
-0.835438  -0.529704  0.146481
-0.55544  -0.830497  -0.04196
-0.748782  -0.649433  0.132525
-0.594561  -0.80218  -0.054818
-0.599682  -0.796411  -0.078175
-0.862595  -0.348815  0.366414
-0.829105  -0.504741  0.240458
-0.883094  -0.34955  0.312985
0.341783  -0.91026  -0.233692
0.392187  -0.869406  -0.300538
0.342758  -0.939318  -0.014119
0.470894  -0.646266  -0.600499
0.314458  -0.92181  0.226676
0.392163  -0.817408  0.421962
0.343474  -0.927531  -0.147352
0.409377  -0.894627  -0.179034
-0.450566  -0.859476  -0.241436
-0.200832  -0.873599  -0.443273
0.013608  -0.882286  -0.470517
-0.002149  -0.910733  -0.41299
0.039806  -0.876896  -0.47903
0.138409  -0.738632  -0.659747
0.120558  -0.843299  -0.523749
0.132475  -0.721429  -0.679699
-0.114901  -0.708355  -0.696441
-0.154813  -0.88186  -0.445371
0.49151  -0.600873  -0.630372
0.413911  -0.574202  -0.706378
0.548769  -0.54284  -0.635749
0.580663  -0.455527  -0.674778
0.590916  -0.385574  -0.708626
0.471377  -0.485083  -0.736545
0.41952  -0.482735  -0.768746
0.452925  -0.478632  -0.752177
0.479416  -0.484488  -0.731732
0.353583  -0.370995  -0.858686
0.269478  -0.416459  -0.868299
0.295609  -0.497199  -0.815726
0.411579  -0.42943  -0.803861
0.416089  -0.71224  -0.565318
0.399531  -0.588219  -0.703117
0.487188  -0.506012  -0.711758
-0.87997  -0.299397  0.368802
-0.907679  -0.235231  0.347543
-0.761927  -0.26831  0.589472
-0.642959  -0.208567  0.736956
-0.519294  -0.205462  0.82953
-0.466001  -0.238207  0.852115
-0.471711  -0.221425  0.853498
-0.369687  -0.116359  0.921842
-0.321337  -0.184366  0.928844
-0.145739  -0.291092  0.945529
-0.214773  -0.3107  0.925926
-0.297465  -0.234981  0.925364
-0.301292  -0.198847  0.932568
-0.215275  -0.224124  0.950487
0.576651  -0.714278  0.396587
0.691863  -0.700976  0.173084
0.70718  -0.669968  0.22592
0.50562  -0.484457  0.713898
0.569794  -0.606653  0.554353
0.391037  -0.21251  0.895505
0.435033  -0.468426  0.768975
0.438323  -0.353359  0.826444
-0.027148  -0.283038  0.958724
0.008478  -0.174047  0.984701
0.309468  -0.070033  0.948327
0.389244  -0.094695  0.916254
-0.345273  -0.929764  -0.127768
-0.433672  -0.900487  -0.032433
-0.405301  -0.888191  -0.216445
-0.284599  -0.925548  -0.249727
-0.776453  -0.626299  0.069785
-0.647884  -0.761711  0.006573
-0.746809  -0.654298  0.119038
-0.751748  -0.59954  0.274638
-0.744336  -0.500833  0.441737
-0.828091  -0.33906  0.446435
0.426235  -0.903556  0.043712
0.499894  -0.85951  0.106533
0.420949  -0.883915  -0.203706
0.385507  -0.777079  -0.497527
-0.14728  -0.950538  -0.273471
0.03634  -0.846009  -0.531929
0.034663  -0.946641  -0.320421
0.130685  -0.891829  -0.433086
0.189726  -0.924322  -0.331108
-0.010605  -0.88024  -0.474411
0.285694  -0.828628  -0.48141
0.264902  -0.67004  -0.69345
0.443376  -0.725398  -0.526513
0.410138  -0.640728  -0.649041
0.599709  -0.579239  -0.552115
0.569663  -0.652303  -0.499986
0.550802  -0.644927  -0.529799
0.495368  -0.592503  -0.635257
0.459562  -0.534426  -0.70936
0.401958  -0.585253  -0.704208
0.336141  -0.404004  -0.850759
0.303011  -0.4577  -0.83588
0.231841  -0.461045  -0.856555
0.313669  -0.518592  -0.795409
0.421056  -0.475438  -0.772445
0.40954  -0.421234  -0.809221
0.511442  -0.78174  -0.356803
0.548313  -0.610756  -0.571254
0.652011  -0.66669  -0.361118
0.610017  -0.602287  -0.514907
0.520659  -0.568757  -0.636734
-0.895079  -0.273812  0.35194
-0.817244  -0.480852  0.317638
-0.741428  -0.483187  0.465634
-0.63607  -0.322858  0.700841
-0.619517  -0.060545  0.782645
-0.716108  -0.259728  0.647867
-0.698071  -0.305134  0.647758
-0.804098  -0.015555  0.594293
-0.767772  -0.095465  0.633572
-0.566978  -0.141019  0.811572
-0.309968  -0.07386  0.947874
-0.339354  0.011125  0.940593
-0.400153  0.028329  0.916011
-0.447893  -0.041966  0.893102
-0.259425  -0.142218  0.955234
-0.147707  -0.072552  0.986367
0.050833  -0.097687  0.993918
0.56141  -0.822457  0.091553
0.652415  -0.727282  -0.21311
0.665023  -0.746822  0.000727
0.70572  -0.686097  -0.176723
0.690693  -0.642921  -0.331054
0.777187  -0.623785  -0.082901
0.654322  -0.526027  0.543284
0.758522  -0.566512  0.322039
0.645978  -0.437581  0.625488
0.506595  -0.392884  0.767465
0.498012  -0.218053  0.839308
0.459529  -0.199403  0.865489
0.469255  -0.080777  0.879361
0.254878  -0.023131  0.966697
0.321587  0.009011  0.946837
0.379928  -0.030077  0.924527
0.416254  -0.125354  0.900566
-0.347523  -0.899019  -0.266445
-0.689204  -0.703424  -0.17376
-0.571419  -0.792936  -0.211502
-0.736183  -0.665526  0.122924
-0.730615  -0.677642  -0.083684
-0.699381  -0.620337  0.355033
-0.612706  -0.684719  0.394653
-0.551196  -0.523083  0.650051
-0.658689  -0.408021  0.632178
-0.790779  -0.328231  0.516655
0.52962  -0.816677  -0.22922
-0.211639  -0.845335  -0.490528
0.274645  -0.954197  -0.118652
0.06924  -0.989769  -0.12475
-0.206411  -0.928111  -0.309844
0.214518  -0.875395  -0.433204
0.09877  -0.87396  -0.475856
0.321264  -0.891496  -0.319412
-0.307807  -0.861675  -0.40345
0.558092  -0.779208  -0.285249
0.553799  -0.72251  -0.413868
0.647374  -0.627722  -0.432287
0.445366  -0.673285  -0.5902
0.433632  -0.658395  -0.615207
0.369202  -0.616167  -0.695721
0.346407  -0.590292  -0.72908
0.438049  -0.542606  -0.716723
0.404317  -0.517774  -0.753949
0.446864  -0.529776  -0.720868
0.406639  -0.488891  -0.771771
0.643359  -0.625422  -0.441516
-0.799385  -0.309245  0.515123
-0.799768  -0.444841  0.403098
-0.669936  -0.644094  0.369228
-0.625116  -0.530837  0.572225
-0.32858  -0.17526  0.928073
-0.538434  -0.374731  0.754762
-0.732179  0.18434  0.655692
-0.468153  0.055673  0.881892
-0.757812  -0.120393  0.64127
-0.837872  -0.00528  0.545841
-0.682507  -0.038927  0.729842
-0.310162  0.093064  0.946118
-0.294559  0.092454  0.951151
-0.233046  -0.010693  0.972407
-0.392425  0.115359  0.912521
-0.325628  0.17735  0.928716
-0.606674  0.070039  0.79186
-0.566407  0.097169  0.818377
-0.201879  0.015046  0.979295
0.030451  0.010412  0.999482
0.247269  -0.019581  0.968749
0.744561  -0.66512  -0.056948
0.78658  -0.611109  0.088534
0.737264  -0.514461  0.437917
0.756246  -0.444549  0.480072
0.749331  -0.375162  0.545671
0.56528  -0.294156  0.770669
0.624711  -0.184058  0.758854
0.517629  -0.203846  0.830967
0.408136  -0.273727  0.870918
0.472378  -0.080979  0.877668
0.391485  -0.028641  0.919738
0.426292  -0.081937  0.900867
-0.637063  -0.679482  -0.363944
-0.492248  -0.776721  -0.392933
-0.593804  -0.681091  -0.428382
-0.721528  -0.676191  -0.148875
-0.653698  -0.746012  0.127064
-0.528772  -0.716876  0.454411
-0.427881  -0.435153  0.792187
-0.399122  -0.549601  0.733921
-0.6007  -0.412631  0.684759
-0.462007  -0.730235  -0.503295
0.075902  -0.996132  0.044262
0.50755  -0.859314  -0.063025
0.42  -0.904485  0.074208
0.254999  -0.966933  -0.003996
-0.014329  -0.999892  -0.003263
-0.232372  -0.969329  -0.080027
-0.145961  -0.964559  -0.21982
-0.334577  -0.916584  -0.218934
-0.484612  -0.806476  -0.338744
0.567888  -0.763539  -0.307428
0.569036  -0.822294  -0.005647
0.583411  -0.792306  -0.178558
0.578632  -0.778673  -0.242599
0.652183  -0.675038  -0.344937
0.566685  -0.786383  -0.245907
0.48274  -0.773441  -0.410794
0.661359  -0.651557  -0.371588
0.429158  -0.753395  -0.498217
0.471237  -0.73319  -0.490273
0.387478  -0.665444  -0.638
0.321377  -0.648093  -0.690429
0.555802  -0.502767  -0.662049
0.685031  -0.449431  -0.573362
0.434895  -0.627385  -0.645952
0.689187  -0.45311  -0.565431
0.72021  -0.404625  -0.563539
0.584354  -0.593611  -0.553314
0.542654  -0.587896  -0.599921
0.553136  -0.514867  -0.654945
0.581001  -0.494611  -0.646373
0.715363  -0.651156  -0.253479
-0.579827  -0.436515  0.687936
-0.677005  -0.594379  0.434026
-0.581125  -0.758059  0.296042
-0.58375  -0.730216  0.354994
-0.61028  -0.540063  0.57956
-0.662341  -0.566355  0.490455
-0.211202  -0.141178  0.967193
-0.043714  -0.242948  0.969054
-0.423968  -0.229089  0.876225
-0.463694  0.071689  0.88309
-0.195484  -0.242891  0.950152
-0.640892  -0.378543  0.667804
-0.604031  -0.202628  0.770771
-0.932373  0.09047  0.349994
-0.798535  0.154363  0.58182
-0.892267  -0.056543  0.447954
-0.778008  0.001765  0.628251
-0.654351  0.00346  0.756183
-0.301007  0.159406  0.940205
-0.235809  0.168904  0.957009
-0.257781  0.065024  0.964013
-0.125782  0.148623  0.980862
-0.52415  0.180306  0.83232
-0.481622  0.224508  0.847134
-0.261815  0.313797  0.91268
-0.217211  0.330857  0.918343
-0.682958  0.004941  0.730441
-0.282222  0.048785  0.958108
-0.158032  0.049525  0.986191
0.073103  0.137612  0.987785
0.365123  0.096078  0.925988
0.312593  0.125286  0.941589
0.703267  -0.619102  -0.349468
0.81376  -0.564131  -0.139823
0.834893  -0.521403  0.176332
0.811218  -0.486299  0.324714
0.899818  -0.342539  0.270175
0.814303  -0.201613  0.544301
0.592957  0.015028  0.805094
0.740722  0.027611  0.671245
0.771331  0.001484  0.636432
0.530059  -0.134276  0.837262
0.537674  0.039019  0.842249
0.523401  -0.039956  0.851149
0.46345  0.092269  0.881306
0.454553  0.060359  0.888672
0.438082  0.101344  0.893204
-0.655659  -0.708189  -0.261876
-0.676575  -0.721311  -0.148179
-0.700141  -0.711032  -0.065085
-0.54943  -0.735397  0.396633
-0.640015  -0.754155  0.147075
-0.540878  -0.723807  0.428432
-0.36877  -0.611335  0.700198
-0.30126  -0.471442  0.828845
0.131166  -0.986122  0.101782
-0.063669  -0.996317  0.05744
0.508094  -0.841997  0.18133
0.25245  -0.9607  0.115427
0.363948  -0.916384  0.16668
-0.310927  -0.94786  -0.069896
-0.319951  -0.94475  -0.07127
-0.501532  -0.861129  -0.0832
-0.522605  -0.841028  -0.139845
0.565712  -0.795279  -0.217949
0.597272  -0.78772  -0.150874
0.548079  -0.814863  0.188701
0.572412  -0.795114  0.200347
0.568876  -0.814629  -0.11296
0.561931  -0.824866  0.061881
0.568863  -0.813547  -0.120561
0.591084  -0.803252  -0.073532
0.504184  -0.822097  -0.264491
0.409406  -0.735548  -0.539774
0.456362  -0.767901  -0.449512
0.442014  -0.848553  -0.290829
0.507976  -0.632825  -0.584374
0.727978  -0.524134  -0.441963
0.817627  -0.414213  -0.399892
0.853717  -0.331828  -0.40132
0.821045  -0.464426  -0.331954
0.850973  -0.276319  -0.446645
0.644871  -0.492299  -0.584623
0.797587  -0.307553  -0.518908
0.85233  -0.241034  -0.464151
0.690299  -0.57404  -0.440416
-0.479012  -0.513007  0.712301
-0.550217  -0.656366  0.516182
-0.466668  -0.703667  0.535792
-0.45587  -0.700737  0.548771
-0.630388  -0.614112  0.474845
-0.733804  -0.401446  0.548063
-0.356127  -0.026889  0.934051
-0.438959  -0.471673  0.764748
-0.27088  -0.355971  0.894376
-0.215008  0.01465  0.976503
-0.525658  -0.038739  0.849814
-0.374192  -0.222314  0.900309
-0.731659  -0.136887  0.667785
-0.631509  0.013531  0.775251
-0.899174  -0.039324  0.435821
-0.958317  0.03644  0.283373
-0.703864  -0.267134  0.65819
-0.922363  -0.242085  0.301067
-0.859516  -0.036959  0.509771
-0.294918  0.203342  0.933635
-0.364679  0.168944  0.915678
0.179952  0.064421  0.981564
-0.352011  0.167571  0.920873
0.129791  0.144138  0.981009
-0.085278  0.102038  0.991119
-0.608972  0.187101  0.770809
-0.631201  0.038674  0.774655
-0.568415  0.109337  0.815445
-0.434037  0.209954  0.876089
-0.322522  0.234301  0.917106
-0.237901  0.341961  0.909102
-0.163175  0.382705  0.909346
-0.177597  0.245057  0.953103
0.012155  0.279525  0.960061
-0.19601  0.208514  0.958176
-0.190881  0.344026  0.919353
-0.837314  -0.173877  0.518335
-0.746824  -0.210749  0.630745
0.297295  0.181478  0.93738
0.439558  0.154532  0.884821
0.461469  0.147841  0.874751
0.811212  -0.551979  -0.193015
0.830289  -0.553597  -0.064419
0.86334  -0.492436  0.110231
0.893416  -0.212488  0.395799
0.907219  -0.419455  -0.031809
0.919952  -0.372038  -0.123592
0.948757  -0.315577  -0.016456
0.9309  -0.234414  0.280136
0.86075  -0.029733  0.508159
0.745248  0.161894  0.646836
0.851858  0.147522  0.502569
0.672728  0.228127  0.703843
0.471428  0.144055  0.87006
0.521604  0.187278  0.83238
0.513042  0.122814  0.849532
0.568128  0.242626  0.786361
-0.701755  -0.697146  -0.14672
-0.684832  -0.705762  -0.181396
-0.626277  -0.773315  -0.0988
-0.67257  -0.739568  -0.026251
-0.664018  -0.734474  0.140103
-0.624438  -0.744543  0.236081
-0.519739  -0.688596  0.505675
-0.422206  -0.58949  0.688653
-0.251475  -0.479693  0.840628
-0.319408  -0.5348  0.782283
0.097814  -0.989495  0.106456
-0.231429  -0.972851  0.000916
0.448399  -0.796157  0.406291
0.515774  -0.75123  0.411862
0.204585  -0.973553  0.101684
0.195518  -0.942539  0.270911
-0.544825  -0.829575  -0.122359
-0.505715  -0.851166  -0.140601
-0.567788  -0.815742  -0.110373
-0.519226  -0.845739  -0.123003
-0.529493  -0.844001  -0.085442
-0.601626  -0.790115  -0.117324
0.546581  -0.836671  0.035092
0.544642  -0.804545  0.236796
0.534788  -0.841922  -0.071899
0.440449  -0.896899  -0.03971
0.399718  -0.819676  -0.410313
0.369586  -0.783386  -0.499713
0.474571  -0.731101  -0.490178
0.375171  -0.915252  -0.146839
0.379807  -0.893648  -0.239041
0.816863  -0.34152  -0.464864
0.717574  -0.523342  -0.459566
0.843297  -0.506833  -0.178802
0.894935  -0.349751  -0.277065
0.949346  -0.263351  -0.171427
0.950986  -0.164038  -0.262138
0.950499  -0.073497  -0.301911
0.838984  -0.257152  -0.47956
0.910421  -0.091639  -0.403406
0.951122  -0.02965  -0.307387
-0.366855  -0.5096  0.778283
-0.454622  -0.557112  0.694943
-0.310546  -0.588321  0.746619
-0.585654  -0.524416  0.618059
-0.712171  -0.450515  0.538377
-0.776478  -0.20907  0.594451
-0.544125  -0.477574  0.68982
-0.813862  -0.501873  0.292834
-0.803869  -0.379307  0.458171
-0.516758  -0.16605  0.839874
-0.491348  -0.344717  0.799842
-0.612413  0.148346  0.776495
-0.588308  0.133143  0.797601
-0.571867  0.102698  0.813893
-0.533739  0.086435  0.841221
-0.725203  0.058902  0.686011
-0.789678  0.093056  0.606424
-0.677715  0.160811  0.717525
-0.945353  -0.049809  0.322223
-0.895806  -0.217451  0.387616
-0.631427  -0.196912  0.750017
-0.38878  0.264792  0.88246
-0.352878  0.212016  0.911332
-0.231822  0.374635  0.897723
-0.179648  0.405468  0.896282
-0.168584  0.527114  0.832905
-0.113323  0.55579  0.823562
-0.160635  0.517473  0.840487
0.360851  0.172744  0.916485
0.327258  0.225099  0.917732
-0.015053  0.459481  0.88806
0.204955  0.353922  0.912542
0.968565  -0.228108  0.099244
0.948496  -0.047552  0.313201
0.859303  0.2691  0.434953
0.978266  0.088382  0.187574
0.903093  0.210297  0.37443
0.797744  0.322072  0.509778
0.702463  0.393997  0.592716
0.509215  0.16809  0.844065
0.756859  0.24823  0.604604
0.633023  0.156621  0.758124
0.688148  0.223705  0.690224
0.766078  0.306549  0.564936
-0.663193  -0.725495  -0.183934
-0.616979  -0.75312  -0.228356
-0.662918  -0.744636  -0.077835
-0.695918  -0.712411  -0.09038
-0.649294  -0.741262  -0.170144
-0.601645  -0.700318  0.384159
-0.655511  -0.692117  0.302126
-0.555923  -0.656958  0.509269
-0.505206  -0.577797  0.641028
-0.335927  -0.475627  0.812977
-0.330707  -0.45664  0.825901
-0.2761  -0.959276  0.059656
0.072474  -0.971308  0.226512
0.263974  -0.947782  0.178963
0.337829  -0.7999  0.496015
0.469967  -0.707907  0.527255
0.424833  -0.70878  0.563159
0.344811  -0.76553  0.543202
0.484858  -0.756461  0.438952
0.044777  -0.948635  0.313186
-0.169683  -0.973237  0.154973
-0.688257  -0.687915  -0.23038
-0.641133  -0.744851  -0.184782
-0.418308  -0.907493  -0.038414
-0.601481  -0.778864  -0.177742
-0.705345  -0.67559  -0.21463
0.446885  -0.890973  0.080381
0.491125  -0.826827  0.27414
0.455901  -0.889986  0.008919
0.43137  -0.894504  0.117399
0.415419  -0.906806  0.071627
0.459288  -0.884259  -0.084498
0.34191  -0.935151  -0.09268
0.542616  -0.828242  0.139938
0.536994  -0.750882  -0.384466
0.381865  -0.911889  -0.150457
0.466081  -0.854796  -0.228239
0.551136  -0.776014  -0.306677
0.580721  -0.75773  -0.297671
0.84423  -0.348007  -0.407636
0.923937  -0.146172  -0.353516
0.93179  0.017391  -0.362582
0.789276  -0.476278  -0.38756
0.989058  -0.144587  0.029318
0.99062  0.065357  -0.120005
0.969921  0.010977  -0.243171
0.995068  -0.074711  -0.065258
0.991867  0.100333  -0.078317
0.992896  0.05863  -0.103538
0.925174  0.186679  -0.330461
0.939745  0.111833  -0.323068
0.987806  0.13406  -0.079163
0.967941  0.187039  -0.167649
-0.401699  -0.462859  0.79019
-0.595167  -0.35907  0.718919
-0.7046  -0.427529  0.566354
-0.770086  -0.14425  0.621417
-0.658427  0.252594  0.708992
-0.717805  0.270004  0.641758
-0.531524  0.181703  0.827325
-0.755013  0.202443  0.623677
-0.679825  -0.031421  0.732701
-0.794825  0.179032  0.579827
-0.78675  0.265089  0.557451
-0.445718  0.308186  0.84045
-0.272916  0.500128  0.82182
-0.269508  0.488582  0.829851
-0.336317  0.495072  0.801121
-0.215792  0.542595  0.811803
0.029204  0.591204  0.805993
0.064917  0.573092  0.816916
-0.219254  0.557279  0.800855
-0.078098  0.729046  0.679995
0.075666  0.658201  0.74903
0.397925  0.187102  0.898136
0.331645  0.297273  0.895344
0.280842  0.449186  0.848151
0.111858  0.604024  0.789077
0.279356  0.324494  0.903695
0.305683  0.241095  0.921103
0.954675  0.242976  0.171925
0.95345  0.246736  0.173359
0.869857  0.36136  0.335808
0.803964  0.374298  0.462106
0.821897  0.398007  0.407524
0.551432  0.353351  0.755689
0.85527  0.314802  0.411598
0.78779  0.274214  0.551537
0.833569  0.300388  0.463605
0.707642  0.37929  0.596139
0.748309  0.363803  0.55469
-0.667658  -0.718654  -0.19434
-0.597189  -0.741784  -0.305159
-0.61239  -0.756352  -0.230022
-0.686679  -0.718188  -0.112595
-0.596796  -0.802305  -0.011848
-0.609789  -0.741992  0.278577
-0.679176  -0.709542  -0.187802
-0.710457  -0.691261  -0.131941
-0.72595  -0.68356  -0.075783
-0.496448  -0.567504  0.65687
-0.608223  -0.626293  0.48767
-0.535614  -0.542462  0.647188
0.126551  -0.893772  0.430298
0.332767  -0.714681  0.615221
0.442709  -0.699084  0.561507
0.05417  -0.880591  0.470771
0.429134  -0.763834  0.48208
-0.271981  -0.955043  0.11798
-0.156573  -0.962131  0.223133
-0.527751  -0.848446  -0.040225
-0.667169  -0.689324  -0.282344
-0.661856  -0.660415  -0.354681
-0.735178  -0.636949  -0.231971
-0.686521  -0.704211  -0.181041
-0.715217  -0.697297  -0.04734
0.145454  -0.948203  0.282408
0.313051  -0.945549  0.089088
0.364372  -0.837336  0.407556
0.377633  -0.917804  0.122592
0.516863  -0.854496  0.051854
0.510541  -0.859553  -0.022719
0.732621  -0.680376  -0.018843
0.52925  -0.842011  -0.104456
0.73166  -0.663905  -0.154608
0.631259  -0.765429  -0.125026
0.384447  -0.888552  0.250352
0.500559  -0.826927  0.25619
0.665094  -0.733907  0.137952
0.841123  -0.538157  0.053844
0.753825  -0.571564  -0.324134
0.634127  -0.755112  -0.166397
0.743104  -0.572106  -0.347118
0.845217  -0.449243  -0.289465
0.869791  -0.354299  -0.343419
0.954555  0.047919  -0.294157
0.910448  -0.264893  -0.317673
0.922764  0.209119  -0.323691
0.988155  0.144939  -0.050428
0.958834  0.246822  0.140416
0.914438  0.341573  -0.217096
0.907767  0.395752  -0.139065
0.908846  0.337148  -0.245621
0.956322  0.285761  0.061545
0.927485  0.37355  -0.015218
-0.446511  -0.579909  0.68142
-0.513209  -0.620882  0.592555
-0.374273  -0.443884  0.814179
-0.556483  -0.258393  0.789658
-0.449098  -0.406731  0.795538
-0.533217  -0.363643  0.763835
-0.668959  0.389537  0.633052
-0.750413  0.339906  0.566873
-0.614984  0.287324  0.734329
-0.569523  0.320703  0.756831
-0.64656  0.2176  0.73117
-0.516661  -0.205007  0.831284
-0.599369  0.04338  0.799297
-0.691699  0.274318  0.668059
-0.721272  0.243319  0.648508
-0.719877  0.429682  0.545116
-0.457494  0.35802  0.813954
-0.415264  0.510551  0.752924
-0.273442  0.568536  0.775884
-0.36556  0.584561  0.72433
0.245468  0.604772  0.757625
0.364597  0.658242  0.658624
0.149665  0.702447  0.695822
-0.283986  0.59151  0.754631
-0.238968  0.709674  0.662764
-0.194224  0.798603  0.569658
-0.035456  0.861248  0.506947
0.149685  0.832246  0.533817
0.207645  0.759641  0.616303
0.301539  0.153069  0.941087
0.361869  0.2857  0.887371
0.236963  0.606912  0.758621
0.453606  0.519776  0.72393
0.893536  0.396258  0.211125
0.82604  0.396727  0.400333
0.592914  0.542173  0.5954
0.823207  0.392577  0.410139
0.863829  0.378686  0.332259
0.82126  0.383157  0.422757
0.746228  0.410784  0.523832
0.694434  0.482939  0.533415
-0.624964  -0.737801  -0.255088
-0.780011  -0.604758  -0.160784
-0.812069  -0.567782  -0.134786
-0.751767  -0.612915  -0.243273
-0.832069  -0.531345  -0.159166
-0.648161  -0.727741  -0.224232
-0.667973  -0.744181  -0.002509
-0.631882  -0.771789  0.071181
-0.755097  -0.639188  -0.14583
-0.575566  -0.7304  0.367748
-0.743137  -0.619387  -0.253194
-0.097289  -0.944633  0.313374
0.418669  -0.730773  0.539154
0.198788  -0.836745  0.510237
0.447898  -0.661284  0.60174
0.438577  -0.711134  0.549489
-0.045619  -0.973262  0.225124
-0.225077  -0.919609  0.321961
0.421497  -0.733348  0.533423
0.4929  -0.709173  0.504106
0.412122  -0.783212  0.465548
-0.460885  -0.887416  0.008847
-0.402594  -0.910449  0.094869
-0.389106  -0.908725  0.151046
-0.705863  -0.705444  -0.064088
-0.633507  -0.768426  -0.090504
-0.716645  -0.643112  -0.269866
-0.628614  -0.706307  -0.325537
-0.64699  -0.667662  -0.368282
-0.675777  -0.634975  -0.374344
-0.845513  -0.498963  -0.190115
-0.854368  -0.512812  -0.084142
-0.75196  -0.652853  -0.091319
-0.676089  -0.567116  -0.470407
-0.753745  -0.646418  -0.118374
-0.729947  -0.543712  -0.414192
-0.677342  -0.721283  -0.144766
-0.619878  -0.659931  -0.424549
0.168374  -0.939902  0.297041
0.077062  -0.983961  0.160879
0.502879  -0.780676  0.371023
0.438439  -0.885919  0.151391
0.366532  -0.870074  0.329585
0.887772  -0.448612  -0.102997
0.782353  -0.620882  -0.049288
0.923885  -0.367698  -0.105999
0.741014  -0.665126  -0.09223
0.779456  -0.62428  -0.052177
0.88534  -0.433664  -0.167658
0.9255  -0.344807  -0.156709
0.886707  -0.457064  -0.069598
0.685653  -0.687747  0.238506
0.754244  -0.621093  0.212979
0.734946  -0.664279  0.136339
0.910528  -0.403236  0.091322
0.949273  -0.314031  0.016306
0.949973  -0.293291  -0.107384
0.832036  -0.429753  -0.350754
0.85647  -0.475383  -0.201172
0.967648  -0.090073  -0.235678
0.928611  -0.263694  -0.261049
0.962116  0.110421  -0.249277
0.936395  0.222756  -0.271192
0.903443  0.357934  -0.235953
0.899845  0.435314  -0.027951
0.832178  0.539875  -0.126549
0.855344  0.495887  -0.14994
0.91003  0.413436  0.030272
0.915822  0.401367  0.01323
0.792663  0.601936  -0.096737
-0.52691  -0.535751  0.659801
-0.606033  -0.406523  0.683713
-0.625237  -0.42594  0.653953
-0.609403  -0.470598  0.638095
-0.630761  -0.491128  0.600778
-0.730144  0.390466  0.560736
-0.62218  0.477819  0.620146
-0.601398  0.563319  0.566561
-0.677549  0.47251  0.563615
-0.519772  0.445855  0.728733
-0.568956  0.078241  0.818638
-0.601314  0.414233  0.683251
-0.572775  0.2174  0.790358
-0.577269  -0.145009  0.803575
-0.74532  0.314654  0.587785
-0.687055  0.243011  0.684763
-0.685544  0.375989  0.623427
-0.726413  0.430407  0.535793
-0.625627  0.634854  0.453378
-0.659842  0.560694  0.500231
-0.656161  0.518032  0.548722
-0.467053  0.574792  0.671919
-0.341529  0.607996  0.716728
-0.387379  0.679142  0.623461
0.449855  0.649238  0.613287
0.546708  0.701412  0.457309
0.412724  0.767678  0.490234
0.230458  0.730375  0.642994
-0.214535  0.814014  0.539773
-0.106378  0.884247  0.454742
-0.04165  0.946354  0.320437
0.039567  0.931663  0.361163
0.165469  0.899297  0.404827
0.309522  0.837293  0.450707
0.389412  0.712397  0.583822
0.868456  0.370843  0.329027
0.885083  0.418184  0.204328
0.429029  0.696222  0.575508
0.322421  0.754509  0.57163
0.452496  0.711287  0.537883
0.927389  0.343248  0.148761
0.609177  0.609328  0.507565
0.817678  0.472652  0.328636
-0.719027  -0.694982  0.000226
-0.696216  -0.714234  -0.071792
-0.870467  -0.458234  -0.179749
-0.911243  -0.313385  -0.267255
-0.853288  -0.469871  -0.226098
-0.932733  -0.356085  -0.056685
-0.942173  -0.314365  -0.116123
-0.878754  -0.386052  -0.280635
-0.746656  -0.654927  0.11651
-0.873532  -0.48469  -0.044913
-0.701851  -0.707246  0.084909
-0.682512  -0.650089  0.334008
-0.672742  -0.668713  0.316609
-0.640244  -0.602116  0.477016
-0.829203  -0.405394  -0.384809
-0.733569  -0.582829  -0.349553
0.295688  -0.867999  0.398931
0.32802  -0.894806  0.302862
0.409556  -0.771431  0.486989
0.503541  -0.655365  0.562978
0.452002  -0.672554  0.585974
0.651064  -0.606398  0.456506
0.661268  -0.578805  0.477189
0.571101  -0.672409  0.470861
-0.308231  -0.942509  0.129114
-0.218987  -0.975684  0.009287
-0.029576  -0.9784  -0.204593
0.195683  -0.969747  0.14594
-0.452605  -0.877893  0.156374
0.538363  -0.740027  0.403144
0.671837  -0.636575  0.378691
0.689636  -0.658764  0.30072
-0.567613  -0.823296  -0.000369
-0.607662  -0.786795  -0.108167
-0.606965  -0.789139  0.094088
-0.731575  -0.62411  -0.27438
-0.807646  -0.544441  -0.226477
-0.651795  -0.675865  -0.344049
-0.743866  -0.612994  -0.266272
-0.759046  -0.569222  -0.315965
-0.694747  -0.565685  -0.444215
-0.906939  -0.404804  -0.116598
-0.761657  -0.471837  -0.444126
-0.710318  -0.629402  -0.315121
-0.785803  -0.5155  -0.341722
-0.917128  -0.38563  -0.100826
-0.671079  -0.679604  -0.296297
-0.724131  -0.452521  -0.520441
-0.671524  -0.445271  -0.592274
-0.669459  -0.482479  -0.564835
-0.814628  -0.489927  -0.310408
-0.761709  -0.214924  -0.611234
-0.618113  -0.337961  -0.709732
-0.494668  -0.554319  -0.669354
-0.536865  -0.644756  -0.544119
0.784125  -0.587541  0.199858
0.989692  -0.063854  -0.128188
0.974368  -0.154886  -0.163149
0.957586  -0.147339  -0.24763
0.960548  -0.189214  -0.203828
0.97516  -0.056136  -0.214268
0.810742  -0.552535  0.193396
0.861182  -0.485405  0.150824
0.932736  -0.337432  0.12706
0.98442  -0.171041  -0.040762
0.987774  -0.102566  -0.117403
0.971113  0.089269  -0.221295
0.932165  0.278981  -0.230732
0.91405  0.349397  -0.205999
0.930262  0.242331  -0.275478
0.734644  0.643051  -0.216296
0.878418  0.411975  -0.242197
0.964433  0.234685  -0.121624
0.814691  0.578468  -0.040655
0.75927  0.624479  -0.183125
0.820346  0.567735  -0.068619
0.822358  0.56897  0.000681
-0.704336  -0.561231  0.43466
-0.783653  -0.449491  0.428772