<?xml version="1.0"?>
<VTKFile type="PolyData" version="1.0" byte_order="LittleEndian" header_type="UInt64" compressor="vtkZLibDataCompressor">
  <PolyData>
    <Piece NumberOfPoints="770" NumberOfVerts="0" NumberOfLines="0" NumberOfStrips="0" NumberOfPolys="1547">
      <PointData Normals="Normals">
        <DataArray type="Float32" Name="Normals" NumberOfComponents="3" format="ascii" RangeMin="0.9999998508078323" RangeMax="1.0000001193207986">
          -0.1373153030872345 -0.9075919389724731 -0.3967636525630951 -0.16485556960105896 -0.42605629563331604 -0.8895496726036072
          -0.6061913371086121 -0.2970746159553528 -0.737752377986908 -0.8025452494621277 -0.5620625615119934 0.20001699030399323
          0.08397569507360458 -0.8948036432266235 0.43849119544029236 -0.9845635890960693 0.029894066974520683 0.17245492339134216
          0.7080265283584595 -0.36735227704048157 -0.6031175851821899 0.044351976364851 -0.44931358098983765 -0.8922724723815918
          -0.9801186919212341 0.19836848974227905 0.0041558207012712955 -0.940116822719574 0.3405000567436218 -0.015491490252315998
          0.6383342146873474 -0.2580699622631073 -0.7252098917961121 -0.5364110469818115 -0.04938323050737381 -0.8425108790397644
          -0.6975818872451782 -0.25187253952026367 0.6707754731178284 -0.9385484457015991 0.025309989228844643 0.3442184329032898
          0.3199061453342438 -0.6077711582183838 0.7268248200416565 0.7809006571769714 -0.6239213347434998 0.03026936762034893
          -0.9692954421043396 0.20753340423107147 0.13189449906349182 0.877878725528717 -0.4472775161266327 -0.17109011113643646
          0.8928003311157227 -0.2026394009590149 -0.4022993743419647 -0.8861838579177856 0.45653772354125977 -0.07906588166952133
          -0.8875647783279419 0.46068239212036133 0.0006829649209976196 -0.9434108138084412 0.3194361925125122 0.08908678591251373
          0.9514822959899902 -0.13314826786518097 -0.27740371227264404 0.9321853518486023 -0.22470726072788239 -0.28379061818122864
          0.8269321918487549 -0.21339385211467743 -0.5202366709709167 -0.48631906509399414 -0.11543283611536026 -0.8661230802536011
          -0.5575869083404541 -0.2936013340950012 0.7764632105827332 -0.8775372505187988 -0.05777642875909805 0.47601503133773804
          -0.9579742550849915 0.18238729238510132 0.22140510380268097 0.9133571982383728 -0.36752933263778687 0.17521683871746063
          0.047870516777038574 -0.5310555100440979 0.8459836840629578 -0.8832775354385376 0.4636812210083008 -0.06942939758300781
          0.957966148853302 -0.2833811044692993 -0.044675346463918686 -0.8582565188407898 0.49907776713371277 -0.11965296417474747
          -0.9467851519584656 0.25435733795166016 0.1972316950559616 -0.9368971586227417 0.3192991614341736 0.14237868785858154
          -0.946692168712616 0.20410609245300293 0.2492281198501587 0.9619037508964539 -0.2022544890642166 -0.18394124507904053
          0.9499189257621765 -0.30306944251060486 -0.07617666572332382 0.9646462798118591 -0.1457710862159729 -0.21956390142440796
          0.7497472763061523 -0.208803191781044 -0.6279173493385315 -0.9370137453079224 0.08003516495227814 -0.3399994969367981
          -0.6564012169837952 0.06247280538082123 -0.7518208026885986 -0.5920550227165222 -0.2993716895580292 0.7482295632362366
          -0.9232408404350281 0.1284240484237671 0.3621237576007843 -0.8940756320953369 0.44719719886779785 -0.025364398956298828
          -0.7852626442909241 0.6033474802970886 -0.13904865086078644 0.7315094470977783 -0.5333919525146484 0.4247197210788727
          0.008557499386370182 -0.5537524819374084 0.8326374292373657 -0.821194052696228 0.5689854025840759 -0.04354175552725792
          0.9393364787101746 -0.3301849365234375 -0.09287072718143463 -0.885026752948761 0.4196060001850128 0.20163941383361816
          -0.9344371557235718 0.22639136016368866 0.2749079167842865 -0.9121381640434265 0.26566916704177856 0.312127947807312
          -0.8590751886367798 0.33778250217437744 0.38456839323043823 -0.9516207575798035 0.23350070416927338 0.19973835349082947
          0.9561107158660889 -0.15475434064865112 -0.24880395829677582 0.9358223676681519 -0.2511640191078186 -0.24729153513908386
          0.9335062503814697 -0.30368572473526 -0.19063320755958557 0.9604727029800415 -0.22463324666023254 -0.16441431641578674
          0.7038045525550842 -0.20723170042037964 -0.6794955730438232 -0.9252288937568665 0.30032429099082947 0.23185501992702484
          -0.723426342010498 0.13694193959236145 -0.6766840219497681 -0.31422168016433716 -0.41588491201400757 0.8534075021743774
          -0.7972670197486877 0.30892571806907654 0.5185847878456116 -0.7765609622001648 0.6224686503410339 0.09739614278078079
          -0.7066360116004944 0.7072467803955078 -0.021623488515615463 -0.712814211845398 0.7006517648696899 0.03135335445404053
          0.49535298347473145 -0.6282505393028259 0.5999389290809631 0.18502360582351685 -0.6571483612060547 0.7306998372077942
          -0.7889066338539124 0.5213584899902344 0.3252870440483093 0.8336018919944763 -0.5375104546546936 0.12724146246910095
          -0.7937389016151428 0.38217517733573914 0.4732027053833008 -0.9050954580307007 0.347459077835083 0.24510067701339722
          -0.8650633692741394 0.3910135328769684 0.31428301334381104 -0.8141617774963379 0.421364426612854 0.3994905948638916
          -0.7671220898628235 0.4306776821613312 0.4754369854927063 0.9442625045776367 -0.24226944148540497 -0.2228764146566391
          0.9334843158721924 -0.18647325038909912 -0.30632448196411133 0.8831334114074707 -0.296172171831131 -0.363809734582901
          0.892888069152832 -0.39857473969459534 -0.20949693024158478 0.9423810243606567 -0.2800050973892212 -0.18307174742221832
          0.6277688145637512 -0.17199914157390594 -0.7591591477394104 -0.8164312839508057 0.30888447165489197 0.4878835678100586
          -0.9354254603385925 0.30158665776252747 0.18445758521556854 -0.8606740832328796 0.2601022720336914 0.4377063810825348
          -0.2097751647233963 0.1584738940000534 0.9648213982582092 -0.548909068107605 0.059797968715429306 -0.8337404131889343
          -0.3317631185054779 -0.2620787024497986 0.9062272906303406 -0.6527075171470642 0.31903281807899475 0.6871615052223206
          -0.6965901851654053 0.6471938490867615 0.30968087911605835 -0.5807176232337952 0.8120117783546448 -0.05834294110536575
          -0.5940150618553162 0.8042144179344177 0.01962658017873764 -0.6876572966575623 0.5408509969711304 0.4843631386756897
          0.25538718700408936 -0.7441349625587463 0.617284893989563 0.24098792672157288 -0.774569034576416 0.5847801566123962
          -0.695281982421875 0.3820382356643677 0.6087936758995056 0.46624836325645447 -0.7311461567878723 0.49803397059440613
          -0.7082086205482483 0.41944578289985657 0.5678959488868713 -0.8409436345100403 0.3285004198551178 0.4300014078617096
          -0.8436250686645508 0.2666480839252472 0.4660423696041107 -0.8656186461448669 0.18737030029296875 0.4643239378929138
          -0.8909702897071838 0.14267542958259583 0.4310636520385742 0.9009703993797302 -0.3506799340248108 -0.25549134612083435
          0.9310951232910156 -0.2585981488227844 -0.2572720944881439 0.8809353709220886 -0.19429917633533478 -0.43150994181632996
          0.7824536561965942 -0.3642440736293793 -0.5050667524337769 0.720366895198822 -0.6908372044563293 0.061769038438797
          0.8174551129341125 -0.28467056155204773 -0.5007292628288269 -0.8053078651428223 0.0553121343255043 -0.59027099609375
          0.025849932804703712 0.09390223771333694 -0.9952458143234253 -0.7673178315162659 -0.011448069475591183 0.6411648392677307
          -0.8148385286331177 -0.16533830761909485 0.5556091070175171 -0.8382197022438049 0.14171597361564636 0.5265969038009644
          -0.22588621079921722 -0.29506948590278625 0.9283908009529114 -0.48803532123565674 0.1383841186761856 0.8617838621139526
          -0.5757883191108704 0.6376488208770752 0.511734127998352 -0.5101971626281738 0.8600122928619385 -0.008816786110401154
          -0.5905503034591675 0.8056963086128235 0.045865729451179504 -0.6726654171943665 0.5443950891494751 0.5011539459228516
          -0.61366868019104 0.3563186526298523 0.7045904397964478 0.5029978156089783 -0.8143858313560486 0.28942859172821045
          0.21138225495815277 -0.8111312985420227 0.5453288555145264 -0.6387198567390442 0.34510114789009094 0.6877079010009766
          0.5286388993263245 -0.7792540788650513 0.3366067111492157 -0.8737493753433228 0.18971821665763855 0.4478493630886078
          -0.8122856020927429 -0.350350946187973 0.46631133556365967 -0.7428947687149048 -0.5032437443733215 0.4414217174053192
          -0.8434635996818542 -0.40386489033699036 0.35420671105384827 -0.9097630381584167 -0.23113590478897095 0.34482964873313904
          0.8416269421577454 -0.3457494080066681 -0.41487523913383484 0.8574857711791992 -0.4074554443359375 -0.3141627013683319
          0.8752002120018005 -0.31466802954673767 -0.36743536591529846 0.7226642370223999 -0.25097885727882385 -0.6440232992172241
          0.6261809468269348 -0.36580121517181396 -0.6885396838188171 0.6801599860191345 -0.7271495461463928 -0.09292883425951004
          0.77524334192276 -0.3663114309310913 -0.5146006941795349 -0.8164042234420776 -0.08573412895202637 0.571081280708313
          -0.9606615900993347 0.2777113914489746 -0.0023969807662069798 -0.6233640313148499 0.5176793932914734 -0.586025059223175
          0.4266291558742523 -0.023016156628727913 -0.904133677482605 -0.6725425720214844 -0.429339736700058 0.6027883887290955
          -0.5687806606292725 -0.7249347567558289 0.38853326439857483 -0.2729024291038513 -0.9257018566131592 0.26191648840904236
          -0.2928667962551117 -0.2792169451713562 0.914476215839386 -0.5206787586212158 0.17756888270378113 0.8350825905799866
          -0.644546389579773 0.7364363670349121 0.20547831058502197 -0.5077762603759766 0.8600382208824158 -0.049976058304309845
          -0.6015104651451111 0.7820615768432617 0.1629868596792221 -0.657581627368927 0.5312371253967285 0.5342035293579102
          -0.6271156668663025 0.3762040436267853 0.68205326795578 -0.6303577423095703 0.2782500088214874 0.7247248291969299
          0.5272555351257324 -0.8458546996116638 0.08081822842359543 0.20042924582958221 -0.8455377221107483 0.4948677122592926
          -0.8719038963317871 0.18503056466579437 0.4533733129501343 0.4305550456047058 -0.8622598052024841 0.2667027413845062
          -0.9473875761032104 -0.12099456042051315 0.2963397800922394 -0.21293821930885315 -0.9423744082450867 0.2580460011959076
          -0.42346417903900146 -0.8381970524787903 0.3436623513698578 -0.7225558161735535 -0.5977522134780884 0.3472827672958374
          -0.8689479231834412 -0.3884376883506775 0.30666863918304443 0.7686551809310913 -0.4473761022090912 -0.45719113945961
          0.844136655330658 -0.37902575731277466 -0.3791738450527191 0.8142494559288025 -0.4380651116371155 -0.38091570138931274
          0.7593982219696045 -0.37046924233436584 -0.5348523259162903 0.5789211988449097 -0.1490125060081482 -0.8016517758369446
          0.5832407474517822 -0.27740657329559326 -0.763463020324707 0.5939550995826721 -0.7770665884017944 -0.20829032361507416
          0.659947395324707 -0.47060322761535645 -0.5856637358665466 -0.7523162961006165 -0.5722832679748535 0.32636192440986633
          -0.9455934166908264 -0.12362559884786606 0.3009483516216278 -0.9231576323509216 0.37598228454589844 0.0801071897149086
          0.06865714490413666 0.47257253527641296 -0.8786133527755737 -0.41818052530288696 0.9068387746810913 -0.05261564999818802
          -0.4295843243598938 0.7143597602844238 -0.552401602268219 -0.7533273696899414 0.6505682468414307 -0.09622329473495483
          -0.5777326226234436 0.6956720948219299 -0.4269254207611084 0.3382135331630707 0.03308744728565216 -0.9404875636100769
          -0.46309611201286316 -0.8838779330253601 0.06558824330568314 -0.04997412860393524 -0.9925765991210938 0.11088018864393234
          -0.2543346583843231 -0.9326376914978027 0.2559310495853424 -0.422799676656723 -0.27454182505607605 0.8636360764503479
          -0.5731328725814819 0.168513223528862 0.8019489049911499 -0.5880040526390076 0.7117088437080383 0.38434603810310364
          -0.5294416546821594 0.8478068709373474 -0.030250266194343567 -0.6020562648773193 0.7907484173774719 0.11065834760665894
          -0.6822806596755981 0.5739619731903076 0.45283642411231995 -0.6490837931632996 0.3772377371788025 0.6605920791625977
          -0.6638807058334351 0.22758276760578156 0.7123681902885437 -0.8436704277992249 0.03433672711253166 0.5357622504234314
          0.5071269273757935 -0.8617740273475647 0.012954477220773697 0.06420072913169861 -0.857267439365387 0.510853111743927
          -0.9557268619537354 -0.12269095331430435 0.2674567699432373 0.36992987990379333 -0.894339919090271 0.25161081552505493
          -0.9574311971664429 -0.19970040023326874 0.20843534171581268 -0.269311785697937 -0.8110086917877197 0.5193612575531006
          -0.6444543600082397 -0.5334721207618713 0.54780113697052 -0.7831700444221497 -0.4625159502029419 0.4156005084514618
          -0.9212278723716736 -0.2265530526638031 0.31624823808670044 0.5863199830055237 -0.645783543586731 -0.4890732765197754
          0.7412752509117126 -0.48907366394996643 -0.4596932530403137 0.8076744675636292 -0.4272867441177368 -0.4063100218772888
          0.7775412201881409 -0.43691325187683105 -0.4522570073604584 0.661018967628479 -0.2688753604888916 -0.7005425691604614
          0.5306700468063354 -0.08577567338943481 -0.8432270288467407 0.5813526511192322 -0.3220702111721039 -0.7471945881843567
          0.5781977772712708 -0.806045651435852 -0.12640319764614105 0.546179473400116 -0.3651503920555115 -0.7538919448852539
          -0.9172000885009766 0.3721473217010498 0.1423039585351944 -0.5539498925209045 -0.8320451378822327 -0.028986727818846703
          -0.48864662647247314 0.8702127933502197 0.06288254261016846 -0.5609596967697144 0.8263227939605713 -0.050148140639066696
          -0.5525053143501282 0.8332452774047852 0.020977068692445755 -0.6185736656188965 0.7097103595733643 0.3371613323688507
          -0.618226170539856 0.5419319272041321 0.5693032145500183 -0.671393632888794 0.3946150243282318 0.627303421497345
          -0.6949969530105591 0.6981815099716187 -0.17181932926177979 0.39641016721725464 -0.17798849940299988 -0.9006547927856445
          -0.8683220148086548 -0.49350544810295105 0.049692198634147644 -0.8055924773216248 -0.3887033462524414 0.447135865688324
          -0.7403610944747925 -0.16200116276741028 0.6523963809013367 -0.3913639187812805 -0.35894322395324707 0.8473452925682068
          -0.49529027938842773 0.032043274492025375 0.8681363463401794 -0.5611255764961243 0.6271617412567139 0.5401909351348877
          -0.5503262281417847 0.8331021070480347 0.05551544949412346 -0.6484431624412537 0.752190113067627 0.11718127876520157
          -0.7177510857582092 0.542190432548523 0.43687868118286133 -0.6699265241622925 0.40362420678138733 0.6231260299682617
          -0.6742210984230042 0.1946326643228531 0.7124212384223938 -0.8299415707588196 -0.02525157295167446 0.557278573513031
          -0.8963433504104614 -0.22760005295276642 0.38048210740089417 0.5086590647697449 -0.860889196395874 -0.011650223284959793
          0.30503734946250916 -0.9028881788253784 0.3028945028781891 -0.9233783483505249 -0.2619439661502838 0.2806381285190582
          0.42229536175727844 -0.8680107593536377 0.2611970901489258 -0.9245519042015076 -0.17945213615894318 0.3361557126045227
          -0.8363125920295715 0.33422258496284485 0.4345991909503937 -0.8556010723114014 -0.016640249639749527 0.5173681378364563
          -0.8716568350791931 -0.26514148712158203 0.41220664978027344 -0.8968252539634705 -0.1686742752790451 0.40896639227867126
          0.46162575483322144 -0.560394287109375 -0.6876479983329773 0.4437764585018158 -0.7186645865440369 -0.5353350639343262
          0.6765297055244446 -0.5463650822639465 -0.49375373125076294 0.7647968530654907 -0.4676588177680969 -0.4431490898132324
          0.7100706100463867 -0.40858277678489685 -0.5734629034996033 0.594732403755188 -0.24746066331863403 -0.7648899555206299
          0.48372164368629456 -0.07763469219207764 -0.8717718720436096 0.49614858627319336 -0.24471113085746765 -0.8330384492874146
          0.6129410862922668 -0.7646912336349487 -0.1988734006881714 0.5701419115066528 -0.2652702331542969 -0.777540922164917
          -0.8580472469329834 -0.4520169794559479 0.24379387497901917 -0.7794298529624939 0.6125931739807129 -0.1312197744846344
          -0.42322593927383423 0.9040437340736389 0.059872888028621674 -0.6549068689346313 0.7553637027740479 0.02286718599498272
          -0.3997507691383362 0.9005716443061829 0.17079231142997742 -0.5007643103599548 0.7874242663383484 0.3594414293766022
          -0.5884857177734375 0.6722231507301331 0.44922226667404175 -0.492951899766922 0.6033074855804443 0.6269119381904602
          -0.566964864730835 0.36718302965164185 0.737378716468811 -0.6666274666786194 0.549660325050354 0.5034691691398621
          -0.5612492561340332 0.7636256217956543 -0.3191791772842407 0.35015764832496643 0.5002689957618713 -0.7919094562530518
          -0.8097501397132874 0.5688008069992065 0.1441192328929901 -0.7207674980163574 0.6161083579063416 0.31765520572662354
          -0.2732556164264679 0.9531382918357849 -0.12984156608581543 -0.47541090846061707 -0.31872937083244324 0.8199975490570068
          -0.5806933045387268 0.1735013872385025 0.7954198122024536 -0.5672821402549744 0.6392484307289124 0.519184410572052
          -0.5337511301040649 0.808481752872467 0.24792513251304626 -0.6737948656082153 0.7171729207038879 0.17794251441955566
          -0.7633094191551208 0.5397688150405884 0.3549768030643463 -0.7662559747695923 0.4398933947086334 0.4683433771133423
          -0.7521822452545166 0.16072501242160797 0.6390535831451416 -0.7660383582115173 -0.15766452252864838 0.6231589913368225
          -0.732140839099884 -0.3711032271385193 0.5711848735809326 -0.6834931373596191 -0.48887377977371216 0.5420697927474976
          0.5382957458496094 -0.8416183590888977 -0.04377475008368492 -0.0054225134663283825 -0.9167115688323975 0.39951297640800476
          -0.6650312542915344 -0.43278899788856506 0.608627200126648 0.416407972574234 -0.8891575932502747 0.18974484503269196
          -0.6712749600410461 -0.39006897807121277 0.630266547203064 -0.63386070728302 0.7044715285301208 0.3192811906337738
          -0.8494258522987366 0.394727498292923 0.3502369523048401 -0.8979871869087219 -0.2135901153087616 0.38470524549484253
          -0.6963076591491699 -0.458269864320755 0.552398681640625 0.606999397277832 -0.3155905306339264 -0.7293518781661987
          0.3959629237651825 -0.6710451245307922 -0.6268268823623657 0.41001930832862854 -0.7469097375869751 -0.5234596133232117
          0.6484271883964539 -0.5799967050552368 -0.4930984079837799 0.6845167875289917 -0.4800412952899933 -0.5486319661140442
          0.6422119736671448 -0.39399561285972595 -0.6575189828872681 0.5588151812553406 -0.23749686777591705 -0.7945569157600403
          0.4597996473312378 -0.059227317571640015 -0.8860453367233276 0.5413711667060852 -0.2353449910879135 -0.8071740865707397
          0.5903927683830261 -0.7325778603553772 -0.3387712836265564 0.7403797507286072 0.6344733834266663 -0.22199392318725586
          -0.2892741560935974 0.9129833579063416 -0.28771838545799255 -0.3707304298877716 0.9121835231781006 -0.1745854914188385
          -0.20825693011283875 0.9779624342918396 -0.014782765880227089 0.1439523994922638 0.9441510438919067 -0.29640623927116394
          -0.14616285264492035 0.9744743704795837 0.17040026187896729 -0.23478953540325165 0.8793533444404602 0.41426020860671997
          -0.4123431146144867 0.702339231967926 0.5802522897720337 -0.5343566536903381 0.30553075671195984 0.7881077527999878
          -0.45677393674850464 0.3650149703025818 0.8112469911575317 -0.5911338925361633 0.3289092481136322 0.7364642024040222
          -0.23796074092388153 0.7678576111793518 0.594785213470459 -0.4485967457294464 0.8260923624038696 0.3410751223564148
          -0.36590278148651123 0.9306341409683228 -0.005930686369538307 0.1112556904554367 0.9430140256881714 -0.31360262632369995
          -0.011678964830935001 0.9999228119850159 -0.004229210317134857 -0.43725427985191345 -0.3769685924053192 0.816519021987915
          -0.569928765296936 0.038344856351614 0.8207990527153015 -0.6252193450927734 0.6134840846061707 0.4824293255805969
          -0.5958495736122131 0.7440546154975891 0.30223506689071655 -0.7474889159202576 0.6214261651039124 0.23471227288246155
          -0.8088180422782898 0.4439210295677185 0.3856779634952545 -0.8227277994155884 0.39103183150291443 0.4125688076019287
          -0.8343245387077332 0.3247312903404236 0.4454796314239502 -0.7945585250854492 0.08827559649944305 0.6007363796234131
          -0.6381412744522095 -0.23907102644443512 0.7318611741065979 -0.5867892503738403 -0.4375288784503937 0.6813566088676453
          -0.4611104428768158 -0.5591307282447815 0.6890210509300232 0.4366439878940582 -0.8834196329116821 -0.17003484070301056
          0.05355079844594002 -0.9774060845375061 0.2044738084077835 -0.32908859848976135 -0.4766654968261719 0.8151630163192749
          0.35826194286346436 -0.9308959245681763 0.07128231227397919 0.09843912720680237 -0.5473858118057251 0.8310706615447998
          0.2872360348701477 0.8460450172424316 -0.4491138458251953 -0.8837258815765381 -0.18469229340553284 0.4300203323364258
          -0.7202396392822266 0.5801874995231628 0.3803120255470276 0.10071679204702377 0.9849063158035278 -0.14076782763004303
          -0.6544551253318787 -0.5522596836090088 0.5164278149604797 0.9005202054977417 0.43113088607788086 0.05647556483745575
          0.6455503106117249 -0.38631537556648254 -0.6588060259819031 0.3940806984901428 -0.7538654804229736 -0.5257255434989929
          0.40557658672332764 -0.7562375664710999 -0.5134320259094238 0.6202123761177063 -0.5782614946365356 -0.5300473570823669
          0.6517715454101562 -0.4463270604610443 -0.6131770014762878 0.5995408892631531 -0.3612034022808075 -0.7142008543014526
          0.5158999562263489 -0.2059316486120224 -0.8315283060073853 0.45181822776794434 -0.04963545873761177 -0.8907281160354614
          0.5744422078132629 -0.2799951732158661 -0.7691676020622253 0.5634365677833557 -0.780453622341156 -0.27098217606544495
          0.2903129458427429 0.8522159457206726 -0.4352543354034424 0.3288106620311737 0.8721746802330017 -0.36220836639404297
          0.27900418639183044 0.9587216377258301 -0.05485888943076134 0.6239829063415527 0.7375348806381226 -0.25823938846588135
          0.21232333779335022 0.9526565670967102 0.21763353049755096 -0.06490782648324966 0.8631879091262817 0.5006929039955139
          -0.3852194547653198 0.5936707258224487 0.7065132856369019 -0.1477450281381607 0.5082939863204956 0.8484153747558594
          -0.03692193701863289 0.4651944637298584 0.884438157081604 -0.0222643855959177 0.4865052402019501 0.8733939528465271
          0.5347431302070618 0.7115640044212341 -0.4557700455188751 0.6457441449165344 0.7401986718177795 -0.18740415573120117
          0.7399377822875977 0.3047354519367218 -0.599690318107605 -0.4367579221725464 -0.33345696330070496 0.835493266582489
          -0.6976219415664673 0.1562873125076294 0.699212372303009 -0.757163405418396 0.5624122619628906 0.3322588801383972
          -0.7460409998893738 0.6405481100082397 0.181991845369339 -0.7918412089347839 0.5316448211669922 0.3005680441856384
          -0.7986888885498047 0.4952661395072937 0.34177127480506897 -0.7875699996948242 0.4494442641735077 0.42158442735671997
          -0.7748187184333801 0.3006424903869629 0.5561206936836243 -0.7908933162689209 0.24653296172618866 0.5600975751876831
          -0.7622026205062866 -0.025172609835863113 0.6468489766120911 -0.6895871162414551 -0.35104987025260925 0.633430004119873
          -0.6026979088783264 -0.4737505316734314 0.6421182155609131 -0.2716566026210785 -0.1650838553905487 0.9481297731399536
          0.3815353214740753 -0.8843139410018921 -0.2691088020801544 0.17641079425811768 -0.9262664914131165 0.33303114771842957
          0.49332112073898315 0.579670250415802 0.6485496759414673 0.4016605615615845 -0.9091683030128479 -0.10991723835468292
          0.7800964117050171 0.3919595777988434 0.4876651167869568 0.8644536137580872 -0.4967007339000702 0.07751370221376419
          0.08846060186624527 -0.7504618167877197 0.6549670696258545 0.9487580060958862 -0.14064078032970428 0.2829810380935669
          0.7426241636276245 0.2893957197666168 -0.6039533019065857 0.6648982763290405 0.2068452537059784 -0.7177222967147827
          0.7226336002349854 0.20943056046962738 -0.6587408781051636 -0.9398099184036255 -0.07215598225593567 0.3339920938014984
          -0.6575409770011902 0.6760987043380737 0.33246102929115295 0.29127198457717896 0.8376708030700684 -0.46202629804611206
          0.5640919208526611 0.0340549536049366 -0.8250094056129456 -0.691027820110321 -0.6370236873626709 0.34158647060394287
          0.963056206703186 0.23197047412395477 0.1367936134338379 0.520770788192749 -0.45307764410972595 -0.7235456705093384
          0.23402602970600128 -0.7795451879501343 -0.5809828639030457 0.3652234971523285 -0.7639466524124146 -0.5319749712944031
          0.5618682503700256 -0.5788841843605042 -0.5909290909767151 0.613866925239563 -0.43321073055267334 -0.6599211096763611
          0.5190184712409973 -0.33883464336395264 -0.7847362160682678 0.44900962710380554 -0.2084416002035141 -0.868874192237854
          0.44375014305114746 -0.10413812845945358 -0.8900792598724365 0.5461687445640564 -0.5673512816429138 -0.6162890195846558
          0.5128412842750549 -0.8118210434913635 -0.279178261756897 0.7476909756660461 0.5648549795150757 -0.3491376042366028
          0.7903040051460266 0.46337318420410156 -0.40088024735450745 0.46432191133499146 0.8842349648475647 0.050337422639131546
          0.5836726427078247 0.8011715412139893 -0.13210077583789825 0.05544202774763107 0.9153638482093811 0.39879217743873596
          -0.3152931034564972 0.7549171447753906 0.5750567317008972 0.11371196806430817 0.7277570962905884 0.6763424873352051
          0.9743922352790833 0.1891002058982849 -0.12165892124176025 0.9237934350967407 0.13562722504138947 -0.3580654263496399
          0.7756217122077942 0.44878730177879333 -0.4438478350639343 0.7437952756881714 0.47632309794425964 -0.4689187705516815
          0.6763952374458313 0.5023248791694641 -0.5386641025543213 -0.23284395039081573 -0.501661479473114 0.8331382870674133
          -0.7165422439575195 -0.019014490768313408 0.6972844004631042 -0.8298287987709045 0.4179803431034088 0.3696978986263275
          -0.7791078090667725 0.6234095692634583 0.06596689671278 -0.7857826352119446 0.6115825772285461 0.09226194769144058
          -0.8214414119720459 0.5250798463821411 0.2225426435470581 -0.8030825257301331 0.5430452227592468 0.2452758401632309
          -0.831540584564209 0.4526139199733734 0.32199519872665405 -0.8596086502075195 0.15346044301986694 0.4873630106449127
          -0.8558187484741211 -0.008214639499783516 0.5172105431556702 -0.8516600131988525 -0.09299951046705246 0.5157774686813354
          -0.7614269256591797 -0.230852872133255 0.6057524681091309 -0.5568981766700745 -0.1308371126651764 0.8202110528945923
          0.0656546801328659 0.7703827619552612 0.6341922879219055 0.4730062484741211 -0.813058614730835 -0.33941227197647095
          0.1744825839996338 -0.9376550316810608 0.3005976974964142 0.33635517954826355 -0.9113566279411316 -0.23726405203342438
          0.2558462619781494 0.9471972584724426 0.19328756630420685 0.014714134857058525 0.9979469180107117 0.062333039939403534
          0.6621823310852051 0.7359411120414734 0.14108586311340332 0.6529003381729126 -0.741895318031311 -0.15268397331237793
          0.8158942461013794 0.022458666935563087 -0.5777647495269775 0.1149437204003334 -0.9434666633605957 0.3108994960784912
          0.8142034411430359 0.13768941164016724 -0.5640163421630859 0.9068920016288757 0.3742726743221283 -0.19356396794319153
          0.817832887172699 0.2604919672012329 -0.5131211876869202 0.7163580656051636 0.5106650590896606 -0.4754496216773987
          0.6698092818260193 -0.35110124945640564 -0.6542808413505554 -0.9548119306564331 -0.07053789496421814 0.2887187898159027
          -0.6078509092330933 0.7487146258354187 0.264468789100647 0.1386343538761139 0.9615122675895691 -0.23722298443317413
          0.4179117977619171 0.156014546751976 -0.8949911594390869 0.44895461201667786 -0.5716478228569031 -0.686773955821991
          -0.16216497123241425 -0.9551314115524292 0.2478436529636383 0.3853190541267395 -0.5228642225265503 -0.7603566646575928
          0.20654387772083282 -0.8107735514640808 -0.5477097034454346 0.30156633257865906 -0.7774375081062317 -0.5519499778747559
          0.4700459837913513 -0.5959933400154114 -0.6510366797447205 0.4913669228553772 -0.4335329234600067 -0.7553858757019043
          0.3946963846683502 -0.32949939370155334 -0.8576974868774414 0.3554679751396179 -0.2465304285287857 -0.9015904664993286
          0.4208056628704071 -0.3763585686683655 -0.8253949284553528 0.14618535339832306 -0.8605577945709229 -0.48792433738708496
          0.12490318715572357 -0.9657628536224365 -0.22737886011600494 0.6207939982414246 0.781387209892273 -0.06363110989332199
          0.5895548462867737 0.8010187149047852 -0.10389570891857147 0.1240338459610939 0.9572343826293945 0.2613769471645355
          0.15265870094299316 0.9471749663352966 0.28205469250679016 -0.26001304388046265 0.8011614084243774 0.5390118360519409
          -0.07966054975986481 0.7909849882125854 0.6066274642944336 0.9490171670913696 0.3026902377605438 -0.08800546824932098