<?xml version="1.0"?>
<VTKFile type="PolyData" version="0.1" byte_order="LittleEndian" compressor="vtkZLibDataCompressor">
	<PolyData>
		<Piece NumberOfPoints="3558" NumberOfVerts="0" NumberOfLines="0" NumberOfStrips="0" NumberOfPolys="7126">
		<PointData Normals="Normals">
		<DataArray type="Float32" Name="Normals" NumberOfComponents="3" format="ascii">
0.013398  0.245789  -0.969231
-0.014859  0.238522  -0.971024
0.182242  0.060821  -0.981371
0.184463  0.146991  -0.971785
-0.093196  0.272136  -0.957735
0.161298  0.2499  -0.954742
0.355913  0.153319  -0.921856
0.255037  -0.046231  -0.965825
-0.083461  0.347041  -0.934129
-0.061518  0.19838  -0.978193
0.142839  -0.088188  -0.985809
-0.011522  0.319156  -0.947632
0.420645  -0.30028  -0.85609
0.339944  -0.073354  -0.937581
0.411033  0.018897  -0.911425
0.36625  0.115998  -0.923258
-0.009757  0.290777  -0.956741
0.074091  0.177258  -0.981372
-0.113661  0.150279  -0.982088
-0.163722  0.26553  -0.950099
0.558934  0.116144  -0.821038
0.40039  0.13778  -0.905928
0.620062  -0.008214  -0.78451
0.566029  -0.005228  -0.824369
0.702998  0.011354  -0.711101
0.302408  -0.230494  -0.92489
0.064726  0.348636  -0.935021
-0.057723  0.463184  -0.884381
0.158693  -0.122078  -0.979752
0.230377  -0.438848  -0.868527
0.334778  -0.510195  -0.792228
0.059473  0.339858  -0.938595
0.11752  0.163803  -0.979468
0.579806  -0.445427  -0.682216
0.484715  -0.717376  -0.500423
0.570509  -0.186676  -0.799794
0.614639  -0.09255  -0.78336
0.561582  0.010452  -0.827355
-0.037092  0.410049  -0.911309
-0.234059  0.359963  -0.90313
0.046106  0.082642  -0.995512
0.299887  0.067847  -0.951559
-0.190933  0.070126  -0.979095
-0.004183  0.102132  -0.994762
-0.205467  0.137806  -0.968913
-0.213428  0.214374  -0.953148
-0.268875  0.257054  -0.92824
0.652064  0.045337  -0.756807
0.828504  -0.034312  -0.558931
0.578679  0.026245  -0.815133
0.775094  -0.16149  -0.61086
0.789651  -0.11415  -0.602845
0.759452  -0.198688  -0.61948
0.915374  -0.142675  -0.376476
-0.04178  0.415267  -0.90874
0.362139  -0.646721  -0.671273
0.340635  -0.166682  -0.925303
0.224943  -0.56869  -0.791197
0.251621  -0.707634  -0.660258
0.355339  -0.802032  -0.480082
-0.010013  0.26404  -0.96446
0.253949  0.231539  -0.939095
0.572872  -0.75497  -0.319122
0.657141  -0.591522  -0.467191
0.694684  -0.348627  -0.629185
0.395865  -0.855463  -0.333879
0.467204  -0.836317  -0.286869
-0.227861  0.461482  -0.857388
-0.198349  0.276393  -0.940353
-0.162865  0.295659  -0.941308
-0.080536  0.410039  -0.908505
-0.021022  0.253718  -0.96705
-0.314555  0.440485  -0.84085
-0.413284  0.379084  -0.827944
0.285841  0.068302  -0.95584
0.564192  0.035357  -0.824886
-0.174624  0.001339  -0.984634
-0.249138  0.069155  -0.965996
-0.247357  0.013597  -0.968829
-0.266632  -0.007788  -0.963767
-0.044274  0.008748  -0.998981
0.068983  0.100654  -0.992527
0.28288  0.114497  -0.952297
-0.322152  0.113497  -0.93986
-0.316182  0.206832  -0.925878
-0.412894  0.295221  -0.861605
-0.568053  0.327435  -0.755051
-0.51066  0.261117  -0.819173
0.813167  -0.022465  -0.581596
0.959337  -0.129283  -0.250915
0.792972  -0.001465  -0.609256
0.863338  -0.242654  -0.442455
0.880217  -0.192938  -0.433581
0.760585  -0.401191  -0.510447
0.866011  -0.326058  -0.379093
0.965955  -0.141371  -0.216669
0.400115  -0.759034  -0.51359
0.472226  -0.864308  -0.173129
0.159174  -0.957935  -0.238796
0.275855  -0.859746  -0.429816
0.286819  -0.611884  -0.737111
0.209378  -0.34455  -0.915121
0.28486  -0.002047  -0.958567
0.082468  -0.009605  -0.996547
0.081997  0.132896  -0.987732
0.525993  -0.769389  -0.362452
0.503122  -0.721007  -0.476464
0.582632  -0.690006  -0.429455
0.752898  -0.594032  -0.283322
0.165569  -0.943205  -0.288013
0.377744  -0.728081  -0.57202
-0.297552  0.374863  -0.878032
-0.327618  0.433163  -0.839664
-0.320862  -0.05947  -0.945257
-0.18173  -0.286584  -0.940661
-0.180746  -0.050502  -0.982232
-0.123095  0.236671  -0.963761
-0.005984  0.006994  -0.999958
0.107016  -0.119092  -0.987099
-0.410784  0.412601  -0.813029
-0.574759  0.343993  -0.74251
-0.671523  0.324217  -0.666289
-0.676794  0.373219  -0.634552
0.578766  0.076475  -0.8119
0.792122  0.043661  -0.608799
-0.128252  -0.125946  -0.983712
-0.275958  -0.207146  -0.938583
-0.256995  0.004816  -0.966401
-0.291953  0.008666  -0.956394
-0.318952  0.026586  -0.947398
-0.276818  0.10622  -0.955033
-0.357351  0.10397  -0.928165
-0.018748  -0.105624  -0.994229
0.182671  0.10342  -0.97772
0.246324  -0.10126  -0.963883
0.49115  0.174598  -0.853398
0.597022  0.134983  -0.790787
-0.438727  0.157766  -0.884663
-0.566591  0.191324  -0.80148
-0.365834  0.033731  -0.930068
-0.320057  0.024212  -0.947089
-0.374787  0.155438  -0.913988
-0.373042  0.205303  -0.904815
-0.610417  0.348179  -0.71145
-0.680643  0.339145  -0.649389
-0.515317  0.224303  -0.827125
-0.484402  0.189635  -0.854045
-0.530635  0.216008  -0.819614
0.95142  -0.066087  -0.30072
0.985707  -0.168044  -0.011936
0.921099  0.001484  -0.389325
0.842959  -0.514873  -0.155967
0.935534  -0.219405  -0.276836
0.908854  -0.115366  -0.400843
0.961832  0.01192  -0.273381
0.996856  -0.078887  -0.007473
0.039799  -0.908454  -0.416086
0.15007  -0.964738  0.216238
0.163228  -0.983285  0.08067
0.595455  -0.803006  0.024803
0.248725  -0.961497  -0.116873
0.008983  -0.542838  -0.839789
-0.040348  -0.306938  -0.950874
0.464658  -0.666506  -0.582978
0.661094  -0.729902  -0.173775
0.546399  -0.767261  -0.335795
0.388153  -0.769719  -0.506824
0.769211  -0.629896  -0.107449
0.012105  -0.920914  -0.389577
0.369764  -0.801223  -0.470442
0.286652  -0.656531  -0.697709
0.172681  -0.741307  -0.648571
-0.358271  0.387124  -0.849574
-0.445695  0.229684  -0.865218
-0.428436  0.047528  -0.902321
-0.618587  0.153985  -0.770479
-0.459311  0.250188  -0.852314
-0.546493  -0.357349  -0.757395
-0.400703  -0.623382  -0.67144
-0.222936  -0.801227  -0.55528
-0.767333  0.254393  -0.588629
-0.848552  0.082227  -0.522684
-0.863754  0.145117  -0.482567
-0.69849  0.203881  -0.685963
0.821014  0.101597  -0.561796
0.938537  0.091971  -0.332699
0.077201  -0.223858  -0.971559
0.114287  -0.081806  -0.990074
-0.290481  -0.0413  -0.955989
-0.367076  -0.141307  -0.919395
-0.379926  0.030757  -0.924505
-0.118186  -0.215046  -0.969426
-0.11909  -0.209428  -0.970545
0.579117  -0.172825  -0.796715
-0.331118  -0.161801  -0.929613
-0.058986  -0.305684  -0.950304
-0.231038  0.339985  -0.911609
-0.301678  0.107689  -0.947309
-0.239653  0.231774  -0.942787
-0.358202  0.292436  -0.886664
-0.355556  0.205196  -0.911852
-0.47242  0.124382  -0.872553
-0.409932  0.30119  -0.860953
-0.545016  0.28941  -0.786892
-0.503287  0.387505  -0.772362
0.422047  -0.027585  -0.906154
0.784729  0.131845  -0.605655
0.680859  -0.097467  -0.7259
0.885875  0.38831  -0.253851
0.934942  0.277728  -0.220795
0.798465  0.249243  -0.548025
-0.413049  0.127223  -0.901779
-0.557254  0.057163  -0.828372
-0.639345  0.26444  -0.722018
-0.621428  0.180792  -0.762326
-0.637261  0.10379  -0.763627
-0.696342  0.299626  -0.652175
-0.572518  0.210172  -0.792497
-0.627295  0.031078  -0.778161
-0.675279  0.117452  -0.728151
-0.595031  0.219279  -0.773211
0.977762  -0.004335  -0.209671
0.986107  -0.166112  0.000448
0.962716  -0.215414  -0.163631
0.963019  -0.116059  -0.243155
0.797995  -0.602467  -0.015437
0.854474  -0.513995  -0.075389
0.907918  -0.374587  -0.188066
0.925782  -0.10734  -0.3625
0.898273  0.062654  -0.434949
0.963519  0.142735  -0.2264
0.986606  0.116725  -0.113948
-0.097423  -0.995085  -0.017744
-0.039442  -0.988619  0.145181
0.125559  -0.912624  0.389041
0.075927  -0.692854  0.71707
-0.081444  -0.555201  0.827719
0.223429  -0.844832  0.486146
0.056161  -0.840921  0.538236
0.384341  -0.871878  -0.303497
0.477595  -0.853244  -0.209469
0.742393  -0.669533  0.024063
0.246177  -0.827078  -0.505311
0.142814  -0.705691  -0.693978
-0.582443  -0.806028  -0.10526
-0.344428  -0.844737  -0.409621
-0.571888  -0.820328  -0.002462
-0.12579  -0.715056  -0.687657
-0.5998  -0.09325  -0.794698
-0.881321  0.065089  -0.468014
-0.848974  -0.298935  -0.435754
-0.764165  -0.237947  -0.599527
-0.527512  -0.785654  -0.323231
-0.700277  -0.527896  -0.480559
-0.300954  -0.936829  -0.178263
-0.933674  -0.228528  -0.27573
-0.922343  -0.272195  -0.274215
-0.943012  -0.084534  -0.321842
-0.831203  0.030565  -0.555129
-0.907588  -0.086619  -0.410829
-0.769713  0.06009  -0.635555
0.927604  0.329738  -0.175568
0.955008  0.19298  -0.225209
0.101539  -0.156261  -0.982483
0.636991  0.042176  -0.769716
0.488965  -0.13947  -0.861082
-0.275019  0.16842  -0.946572
-0.417832  0.029978  -0.90803
-0.334045  -0.089449  -0.938303
-0.398882  0.364402  -0.84149
-0.259638  0.433352  -0.863015
-0.250009  -0.208493  -0.94553
0.01787  0.051036  -0.998537
0.243715  0.079279  -0.966601
0.260576  -0.042417  -0.964521
-0.097099  -0.123211  -0.987619
0.782914  -0.13547  -0.607201
0.942998  -0.036601  -0.330779
-0.293341  0.37492  -0.879424
-0.069018  0.821413  -0.566143
-0.181614  0.748636  -0.637621
-0.169884  0.549549  -0.818007
-0.251558  0.567412  -0.784068
-0.260684  0.553477  -0.791017
-0.352287  0.413901  -0.839393
-0.59036  0.259211  -0.764386
-0.412697  0.495361  -0.764394
-0.634643  0.397599  -0.662679
-0.63711  0.523165  -0.56603
-0.525254  0.659544  -0.53769
0.8905  0.125088  -0.437451
0.939218  0.111645  -0.32466
0.9485  0.281038  0.146173
0.862866  0.374736  0.339169
0.794937  0.601073  0.082386
0.714795  0.5161  0.471921
-0.732343  -0.055808  -0.678645
-0.735366  0.027548  -0.67711
-0.847266  -0.104383  -0.520811
-0.656395  0.214284  -0.723345
-0.855461  0.150508  -0.495514
-0.720723  0.124836  -0.68189
-0.823043  0.224065  -0.521915
-0.834535  0.058815  -0.547806
-0.862882  0.027242  -0.504671
-0.682906  0.299674  -0.666209
-0.679461  0.266258  -0.683695
-0.709288  0.293716  -0.640814
-0.667066  0.348374  -0.658527
-0.853579  -0.031372  -0.520018
-0.894365  -0.131928  -0.427442
-0.749115  -0.143565  -0.646696
-0.76705  -0.174631  -0.617364
0.962712  -0.008311  -0.270402
0.972972  0.079546  -0.216789
0.951246  0.109945  -0.288173
0.87138  -0.016691  -0.490324
0.886892  -0.139335  -0.440463
0.864235  -0.184346  -0.468096
0.8403  -0.252355  -0.479805
0.936847  -0.050518  -0.346072
0.937388  -0.036697  -0.346347
0.807262  -0.579523  0.111717
0.846242  -0.532332  0.022292
0.938017  -0.344057  -0.041827
0.938938  -0.166783  -0.300963
0.87745  0.022737  -0.479129
0.824986  0.109967  -0.554351
0.84156  0.249492  -0.479093
0.774317  0.325368  -0.542741
0.033533  -0.968703  0.245947
-0.147108  -0.973225  0.176613
0.215733  -0.874536  0.434334
0.365088  -0.707079  0.605599
0.275033  -0.851776  0.445909
0.363524  -0.925765  0.103967
0.054068  -0.650703  0.757405
-0.252978  -0.964365  0.077474
0.207435  -0.91432  -0.347836
0.229694  -0.900106  -0.370202
0.289584  -0.92426  -0.248767
0.265889  -0.932556  -0.244217
0.548137  -0.822584  -0.151333
0.682333  -0.729491  0.047587
0.771973  -0.60831  0.184439
0.781373  -0.613935  0.111984
0.095892  -0.798585  -0.594194
-0.741193  -0.67125  0.007446
-0.355829  -0.894867  0.269442
-0.372072  -0.921119  -0.114464
-0.693431  -0.598808  -0.400727
-0.459558  -0.439609  -0.771719
-0.0727  -0.75394  -0.652908
-0.757196  -0.648497  -0.078137
-0.767954  -0.619195  -0.163841
-0.394938  -0.913453  0.098116
-0.597614  -0.800516  0.04507
-0.795095  -0.590563  -0.138054
-0.890822  -0.398667  -0.217948
-0.915861  -0.257718  -0.307863
-0.885876  -0.184032  -0.425858
-0.879176  -0.301932  -0.368629
0.65366  0.745408  0.130751
0.815761  0.561762  -0.137688
0.712072  0.386662  -0.586042
0.68457  0.202878  -0.700147
0.946421  0.266078  -0.183005
-0.323543  0.425123  -0.845334
-0.213717  0.189495  -0.958341
-0.180491  0.044685  -0.982561
-0.096222  0.886061  -0.453473
-0.136089  0.740697  -0.657912
0.029225  0.044501  -0.998582
0.256902  0.402782  -0.878503
0.369427  0.32007  -0.872398
0.686822  0.308904  -0.657917
-0.003722  0.99277  0.119977
0.138147  0.938456  -0.31657
0.219187  0.953306  0.207761
0.07273  0.868907  -0.489604
0.134193  0.99056  0.027987
-0.023886  0.730944  -0.682019
-0.296067  0.598625  -0.744307
-0.139715  0.790699  -0.59605
-0.676383  0.412052  -0.610507
-0.346067  0.744601  -0.570795
-0.694982  0.551464  -0.461398
-0.628063  0.743347  -0.230159
-0.44113  0.823808  -0.356012
0.966665  0.14105  0.213693
0.911254  0.254618  0.323706
0.704196  0.186551  0.68506
0.740029  0.362179  0.566731
0.335557  0.728254  0.597535
0.568464  0.321131  0.757445
0.676988  0.269271  0.684968
-0.865476  -0.206094  -0.456593
-0.90649  -0.17292  -0.385195
-0.975929  -0.083872  -0.201315
-0.956407  -0.182992  -0.227594
-0.895797  0.255925  -0.363387
-0.769473  0.217448  -0.600523
-0.979541  0.036018  -0.197994
-0.960502  0.131291  -0.245356
-0.956514  0.192832  -0.218853
-0.785246  0.360398  -0.503491
-0.790729  0.442163  -0.423367
-0.826985  0.314958  -0.465723
-0.840358  0.397465  -0.368538
-0.752398  0.540623  -0.376328
-0.95239  -0.191194  -0.237482
-0.939  -0.336936  -0.068944
-0.89499  -0.362289  -0.260268
-0.861865  -0.274242  -0.426592
0.984084  -0.004207  -0.177657
0.996065  0.040494  -0.078833
0.959694  0.063562  -0.273766
0.941931  0.110916  -0.316961
0.937983  0.266059  -0.222263
0.809498  0.338336  -0.479836
0.836883  0.422116  -0.34849
0.747842  0.036721  -0.662861
0.674894  0.171702  -0.717661
0.881027  -0.132749  -0.454058
0.812893  -0.115782  -0.570788
0.766499  -0.117371  -0.63143
0.882319  -0.007413  -0.470593
0.981803  0.026105  -0.1881
0.804217  -0.565933  0.181534
0.882445  -0.448493  0.14193
0.893644  -0.428833  0.132293
0.94693  -0.305226  0.100798
0.962535  -0.266023  -0.052509
0.961697  -0.163466  -0.220042
0.823957  0.093207  -0.558933
0.822056  -0.051819  -0.567044
0.777554  0.02086  -0.628471
-0.084655  -0.989873  0.113951
0.358527  -0.931063  0.06768
-0.377621  -0.893183  0.244184
0.40616  -0.881343  -0.241387
0.570288  -0.784693  -0.242957
0.083802  -0.974363  -0.20879
0.169482  -0.908162  -0.382776
-0.054593  -0.767421  -0.638815
0.074795  -0.977398  -0.197734
0.004657  -0.910089  -0.414386
-0.062387  -0.911395  -0.406777
0.063949  -0.961943  -0.265662
0.464446  -0.883571  -0.059929
0.146317  -0.958259  -0.245625
0.133645  -0.967918  -0.212777
0.651326  -0.72827  0.213067
0.669396  -0.632349  0.389928
0.748717  -0.547936  0.373081
-0.982961  -0.15816  -0.093669
0.423356  -0.903356  -0.068683
-0.049513  -0.281682  0.958229
0.478699  -0.827766  -0.292661
-0.619532  0.341493  0.706797
-0.482885  -0.405724  -0.776022
-0.57745  -0.814502  0.056016
-0.600911  -0.790069  0.121229
-0.704147  -0.690476  -0.165588
-0.841445  -0.451345  -0.297081
-0.863239  -0.426315  -0.270321
-0.915246  -0.367188  -0.165825
0.069705  0.97666  0.203166
0.198974  0.652679  -0.73104
0.953884  0.293296  -0.063893
0.822042  0.26974  0.501485
-0.238085  0.57945  -0.779457
-0.115547  0.91818  -0.37894
0.074299  0.687812  -0.722077
0.125332  0.431101  -0.893557
0.119804  0.991091  -0.058188
0.176417  0.947161  0.267886
0.135757  0.9575  0.254488
0.454256  0.668483  -0.588882
0.644909  0.529884  -0.550741
0.918865  0.388778  -0.067371
0.199212  0.9032  0.380191
0.175589  0.857439  0.483701
0.335988  0.911559  0.237005
0.342237  0.8331  0.434532
0.456964  0.717507  -0.525707
0.50082  0.856634  -0.123923
0.465096  0.873935  0.141148
0.234246  0.913344  -0.333063
-0.024342  0.947984  -0.317387
-0.223616  0.889187  -0.399178
-0.736977  0.672266  -0.070166
-0.546195  0.837339  0.023129
-0.266754  0.943986  -0.19425
-0.460538  0.88258  -0.094643
0.651982  0.111456  0.749998
0.602811  0.187886  0.775446
0.074419  0.288458  0.954596
0.880673  0.190999  0.433514
0.732921  0.12455  0.668815
0.645805  0.316303  0.694901
0.456261  0.130398  0.88024
-0.920319  -0.343347  -0.187418
-0.939926  -0.236652  -0.246038
-0.989544  -0.128766  0.064979
-0.99471  -0.029138  0.098503
-0.976929  -0.195823  0.085227
-0.977074  0.205309  -0.05634
-0.95316  0.302317  -0.00953
-0.895938  0.395288  -0.202588
-0.997074  0.075247  0.01349
-0.862871  0.477722  -0.165033
-0.826868  0.546084  -0.134466
-0.879263  0.456886  -0.134727
-0.926576  -0.370749  0.063259
-0.887048  -0.412786  0.206769
-0.892031  -0.390041  0.228363
-0.904689  -0.423972  0.042256
-0.86692  -0.491102  0.085253
-0.892182  -0.427206  -0.146649
0.864127  0.181242  -0.469505
0.852027  0.271907  -0.447344
0.884154  0.326275  -0.33439
0.412832  0.691101  -0.593253
0.912288  -0.1268  -0.389427
0.777706  -0.063232  -0.625439
0.977249  -0.14947  -0.150476
0.804778  -0.137951  -0.577323
0.97057  -0.227341  -0.079436
0.886559  -0.240314  -0.395299
0.709405  0.092185  -0.698747
0.836518  -0.436793  0.330832
0.930771  -0.332435  0.15216
0.965789  -0.241262  0.0951
0.96044  -0.256849  0.10763
0.958569  -0.279437  0.055321
-0.054882  -0.986431  -0.154729
-0.361801  -0.932131  -0.01522
0.338522  -0.916565  -0.212866
-0.09249  -0.901673  -0.422411
-0.21232  -0.90196  -0.376017
-0.405025  -0.737476  -0.540447
-0.086953  -0.995198  -0.044941
-0.159302  -0.958112  -0.238002
-0.15064  -0.884868  -0.440813
-0.124533  -0.913553  -0.387186
-0.442805  -0.74215  -0.503127
-0.434882  -0.785331  -0.440605
-0.278844  -0.853687  -0.439846
0.417569  -0.908624  -0.006127
0.103265  -0.968319  -0.227366
-0.267531  -0.902776  -0.336783
0.458761  -0.812207  0.360358
0.573408  -0.68989  0.441878
0.607849  -0.572222  0.550529
0.517407  -0.638133  0.570155
0.541719  -0.644302  0.539829
0.715766  -0.474816  0.512083
0.789625  -0.406136  0.459941
-0.52418  0.674126  0.520375
-0.57491  -0.148559  -0.804617
0.575448  -0.697007  0.427834
0.383138  -0.91181  -0.147675
-0.246226  0.364535  0.898046
0.449309  -0.363311  0.816166
0.072166  0.026453  0.997042
0.213494  -0.949619  -0.229443
-0.372083  0.511945  0.774252
-0.501552  0.625326  0.59784
-0.654745  -0.483778  -0.580747
-0.528361  -0.845868  -0.073085
-0.683412  -0.694093  -0.226236
-0.800089  -0.59661  -0.06256
-0.125455  0.1575  0.979518
-0.911428  0.172822  0.373406
-0.821923  0.385751  -0.419093
0.912062  0.2742  0.304888
0.893531  0.130086  0.429744
0.0254  0.837064  -0.546515
0.203706  0.977991  -0.045132
0.339974  0.932735  -0.120096
0.34912  0.766699  -0.538783
0.326383  0.857051  0.39867
0.040595  0.925491  0.376588
0.234026  0.812242  0.534316
0.27182  0.912677  0.30518
0.45286  0.887021  -0.090066
0.606702  0.780144  -0.152603
0.818113  0.570687  -0.070763
0.88898  0.398831  0.225054
0.531494  0.811556  -0.242676
0.382541  0.923928  -0.004444
0.504486  0.853059  0.133359
0.403519  0.775957  0.484833
0.528434  0.69499  -0.487592
0.712016  0.421212  -0.561795
0.690021  0.593659  -0.414053
0.065871  0.989066  -0.131948
0.153888  0.954993  -0.25359
-0.604039  0.796669  -0.021332
-0.844113  0.532211  0.064994
-0.374087  0.92682  -0.032612
-0.238981  0.96189  -0.132877
0.032505  0.974119  -0.223684
0.745826  0.096335  0.659138
0.907324  -0.132272  0.399082
0.883441  0.096498  0.458499
0.916546  0.002994  0.399919
0.239367  0.01804  0.970762
0.963138  -0.074112  0.258596
0.999958  -0.009093  -0.001187
0.998597  -0.052668  -0.005581
0.899411  -0.011081  0.436964
0.783003  -0.053392  0.619722
0.618615  0.071444  0.782439
0.579105  -0.104409  0.80854
-0.939412  -0.341491  0.029829
-0.939691  -0.244637  0.239025
-0.983197  0.011845  0.182165
-0.973001  -0.030912  0.228723
-0.924128  -0.300224  0.236331
-0.968742  -0.189756  0.159788
-0.981763  0.127624  0.140903
-0.928186  0.305996  0.211747
-0.961435  0.151451  0.229575
-0.899976  0.434723  0.032544
-0.873852  -0.455881  0.168982
-0.921264  -0.357807  0.152472
-0.859981  -0.41919  0.291055
-0.877328  -0.381309  0.291375
-0.901147  -0.395536  0.177442
-0.863098  -0.498358  0.081862
-0.871671  -0.428428  0.23799
0.620772  0.216058  -0.753632
0.861854  0.182815  -0.473061
0.666373  0.259217  -0.699109
0.829372  0.275722  -0.485922
0.514495  0.465356  -0.720235
0.628916  0.550976  -0.548534
0.770592  -0.008079  -0.637278
0.856878  -0.086203  -0.50826
0.978412  -0.193806  0.071761
0.935611  -0.173112  -0.307676
0.976681  -0.212717  0.029086
0.640761  0.062334  -0.765205
0.856471  -0.336398  0.391527
0.925771  -0.270164  0.264497
-0.173132  -0.978406  -0.112902
0.078751  -0.97061  0.227409
-0.500178  -0.848368  -0.173476
-0.057659  -0.991867  -0.113468
-0.615109  -0.579392  -0.534738
-0.559717  -0.762282  0.325027
0.074119  -0.986992  -0.142667
-0.091585  -0.807455  -0.582777
-0.374858  -0.840997  -0.390136
-0.856402  -0.260718  -0.445648
-0.663154  -0.620215  -0.418998
-0.717977  -0.501733  -0.482465
-0.402337  -0.656384  -0.638188
0.276784  -0.956309  0.09415
0.076561  -0.99696  0.014465
-0.1449  -0.943434  -0.298223
-0.786146  -0.433425  -0.440586
-0.461761  -0.747455  -0.477585
0.252449  -0.903305  0.346858
0.267589  -0.921268  0.282244
0.410737  -0.74564  0.524706
0.472594  -0.58146  0.662238
0.573062  -0.47911  0.664871
0.42298  -0.585662  0.69144
0.432059  -0.594308  0.678323
0.426838  -0.72301  0.543199
0.440862  -0.668805  0.598616
0.761523  -0.410417  0.501638
0.81811  -0.38256  0.429354
-0.385837  0.920246  -0.065394
-0.237495  0.831858  -0.501606
-0.318449  0.890249  0.325649
-0.711749  -0.441968  -0.545965
-0.475848  0.315359  -0.821047
0.629262  -0.651089  0.424397
0.784447  -0.370706  0.497212
0.24815  -0.968112  -0.034357
-0.198067  0.193177  0.960964
-0.30673  0.34896  0.885519
0.333964  0.096273  0.937656
0.619928  -0.768319  0.159296
0.888393  -0.456597  -0.047722
0.594319  -0.431512  0.678663
-0.541894  0.648781  0.53426
-0.538107  0.703475  0.464288
-0.829101  -0.343171  -0.44139
-0.533829  -0.845542  0.009227
-0.788001  -0.604598  0.116257
0.346739  0.02105  0.937725
0.33764  0.096885  0.936276
-0.283827  0.068587  0.956419
-0.982386  0.16236  0.092504
-0.855707  0.1202  0.503306
-0.999783  0.001712  -0.020754
-0.945801  -0.2469  -0.210951
-0.78949  0.454267  -0.412731
-0.93613  0.054902  -0.347341
0.993623  0.014663  0.111794
0.939518  0.313927  0.136954
0.295167  0.917019  0.268239
0.152082  0.733133  0.662863
-0.274198  0.709761  0.648887
-0.156803  0.960066  0.231704
0.10092  0.98444  0.143852
0.551195  0.662345  0.507429
0.428634  0.883243  0.190144
0.645293  0.746959  0.160156
0.695284  0.706736  0.13078
0.629811  0.459775  -0.626055
0.502282  0.646845  -0.57385
0.370804  0.840301  -0.395474
0.495288  0.540012  -0.680497
0.775122  0.612687  -0.154275
0.372808  0.861257  -0.345327
0.517559  0.627311  -0.581905
-0.708526  0.705683  0.001393
-0.594094  0.785452  -0.173541
-0.410851  0.886286  -0.213771
-0.895269  0.379235  0.233826
-0.91548  0.372474  0.152181
-0.911511  0.357374  0.203549
-0.836208  0.519565  0.175524
-0.87501  0.448677  0.181787
-0.812752  0.575992  0.087564
-0.083387  0.949299  -0.303113
-0.085673  0.949124  -0.303024
0.205293  0.869994  -0.448291
0.067025  0.932141  -0.355837
0.957864  -0.286015  0.026318
0.994388  -0.089183  -0.056913
0.991689  -0.126255  -0.024747
0.816323  -0.482981  0.316775
0.489987  -0.615527  0.617283
0.53524  -0.188432  0.823414
0.975129  -0.113088  0.190614
0.986329  -0.100496  -0.1306
0.996358  -0.032279  0.078918
0.782943  -0.297436  0.546382
0.728102  -0.102776  0.67772
-0.925495  -0.316119  0.208634
-0.947813  -0.228182  0.222676
-0.969487  0.009862  0.244943
-0.915934  -0.392473  0.083846
-0.994455  0.028436  0.101244
-0.970744  -0.236735  -0.040158
-0.990248  -0.007157  0.139135
-0.960929  -0.275936  -0.021807
-0.954809  0.185506  0.232223
-0.941653  -0.283233  -0.181848
-0.922828  -0.37893  -0.069292
-0.933304  -0.344405  0.101628
-0.939451  -0.334533  0.074299
-0.83021  -0.556571  0.031291
-0.830695  -0.520324  -0.198014
-0.948064  -0.295081  -0.118753
-0.878781  -0.45314  -0.149695
0.443818  0.203118  -0.872794
0.717582  0.192246  -0.669416
0.38827  0.301382  -0.87087
0.516314  0.32281  -0.79323
-0.986621  0.13694  -0.088464
-0.585238  0.396514  -0.7073
0.829037  -0.054388  -0.556543
0.97698  -0.103678  0.186441
0.991897  -0.097686  0.081226
0.954634  -0.169246  0.245008
0.946451  -0.126767  -0.296919
0.986147  -0.160437  -0.042133
0.93954  -0.177523  0.29283
0.797511  -0.05318  -0.600956
0.784645  0.07309  -0.615621
0.639716  0.142833  -0.755223
0.454539  0.224369  -0.862005
0.835926  -0.384007  0.392131
0.927117  -0.254086  0.275489
0.787894  -0.567223  0.239754
-0.398739  -0.905397  -0.145819
-0.47201  -0.857152  -0.206146
-0.365852  -0.884828  -0.288499
0.107462  -0.930227  -0.350897
0.699617  -0.685163  -0.202703
-0.812037  0.160731  0.561037
0.270741  -0.065129  0.960446
0.17782  -0.981813  0.066509
0.021188  -0.829105  -0.558692
-0.192956  -0.754271  -0.627569
-0.297833  -0.624517  -0.721993
-0.866767  -0.162726  -0.471418
-0.952846  0.203615  -0.225
-0.96089  0.199189  -0.192388
-0.530364  -0.204471  -0.822743
-0.319479  -0.732503  -0.601143
-0.502049  -0.554344  -0.663815
-0.049834  -0.946705  -0.318225
0.159225  -0.972675  0.168969
-0.697477  0.591726  -0.40421
-0.082562  0.05378  -0.995134
-0.123669  -0.583981  -0.802292
0.013984  -0.999591  -0.024953
0.074349  -0.960194  0.269259
0.145745  -0.989322  0.000753
0.217428  -0.845745  0.487279
0.192128  -0.744907  0.638906
0.24852  -0.661308  0.707749
0.446747  -0.481761  0.753872
0.428833  -0.543779  0.721392
0.438266  -0.519695  0.733375
0.60478  -0.49961  0.620186
0.289059  -0.534319  0.794323
0.209898  -0.540909  0.814469
0.793227  -0.39433  0.463999
0.698762  -0.423062  0.576845
0.743693  -0.400582  0.535215
0.085911  0.628159  -0.773328
0.547415  0.603397  -0.57987
-0.123559  0.432374  -0.893189
-0.136008  0.704606  -0.696443
0.039996  0.993332  0.108133
-0.637974  0.287542  -0.714359
0.769795  -0.195963  0.607466
0.752254  -0.658239  -0.028912
-0.241705  -0.203548  0.948761
0.073981  -0.174108  0.981944
0.004604  -0.313377  0.949618
-0.088907  0.062866  0.994054
-0.420111  0.443925  0.791478
0.500851  -0.497758  0.708086
0.226185  -0.863727  -0.450351
0.466766  -0.636909  -0.613577
0.961045  -0.06636  -0.268308
0.975847  0.206913  0.070066
0.60054  -0.46881  -0.647742
0.515748  -0.333792  0.789041
0.684069  -0.205232  0.69995
0.232209  -0.357899  0.904426
-0.021699  -0.535422  0.844306
-0.249497  0.849051  0.465687
-0.667279  0.581107  0.46589
-0.734521  0.573923  0.362065
-0.604363  -0.795841  0.037174
-0.346822  -0.937095  0.039586
0.756681  0.222925  0.614605
0.211653  0.03327  0.976778
-0.408202  -0.025263  0.912542
-0.765289  -0.046537  0.642002
-0.953395  -0.112748  0.279867
-0.861869  0.023167  0.506601
-0.952806  -0.292249  -0.082167
-0.856917  -0.496009  0.140244
-0.888594  -0.444663  0.112583
-0.974388  -0.053841  0.218334
0.94676  0.317466  -0.053479
0.730522  0.68042  0.058011
0.354386  0.915423  0.190817
0.391882  0.629563  0.670879
0.204101  0.478074  0.854276
-0.74546  0.659382  0.097494
-0.1364  0.150325  0.979182
0.032389  0.995446  0.089657
0.334855  0.939931  0.066353
0.644287  0.50743  0.572196
0.956754  0.282061  0.07116
0.474359  0.499409  -0.724965
0.882359  -0.151677  -0.445463
0.485803  0.296662  -0.822184
0.391343  0.506564  -0.768273
0.35997  0.654057  -0.665305
0.298481  0.702589  -0.64597
-0.648131  0.715246  0.261439
-0.689891  0.72385  -0.00956
-0.760333  0.606972  0.231257
-0.525387  0.806166  -0.272148
-0.635081  0.759529  -0.140672
-0.311633  0.920175  -0.236988
-0.105536  0.906205  -0.409457
-0.930487  0.327304  0.164516
-0.915095  0.370367  0.159469
-0.777748  0.492912  0.390058
-0.754724  0.545516  0.364423
-0.843973  0.388579  0.369752
-0.810101  0.43188  0.396506
-0.920481  0.325699  0.21595
0.250348  0.893673  -0.372389
0.221649  0.880674  -0.418671
0.240385  0.848561  -0.471338
0.955105  -0.289799  -0.061576
0.97995  -0.18618  -0.070957
0.939226  0.338967  -0.054358
0.628243  -0.55063  0.549652
0.353935  -0.806662  0.473314
0.88873  -0.421122  0.181148
0.790305  -0.28444  0.54269
-0.154756  -0.289886  0.944466
-0.053454  -0.090812  0.994433
0.660595  -0.036937  0.749833
0.720324  -0.49991  0.480857
0.988036  -0.110077  0.108016
0.925679  0.251048  0.283008
0.202233  0.555135  0.8068
0.403525  -0.030349  0.914465
0.885632  -0.373252  0.276296
-0.97269  -0.13523  0.188647
-0.979332  0.154839  0.13013
-0.991159  0.052507  0.121851
-0.921328  -0.350307  -0.168643
-0.977356  -0.210728  0.019218
-0.993197  0.047488  0.106326
-0.986969  0.033349  0.157415
-0.962436  0.140506  0.232324
-0.951797  0.225162  0.208289
-0.982889  0.080225  0.165809
-0.831287  -0.460102  -0.311877
-0.880372  -0.2707  -0.389445
-0.960989  -0.109824  -0.253849
-0.912933  -0.406601  0.035049
-0.932423  -0.337355  0.129536
-0.873601  -0.485851  0.027757
-0.589287  -0.80344  -0.085001
-0.9347  -0.211999  -0.285293
-0.812932  -0.530182  -0.240934
-0.859832  -0.320289  -0.397624
0.762608  0.017227  -0.646631
0.61886  0.154678  -0.770121
0.473917  0.307378  -0.82518
0.588368  0.283892  -0.757119
0.640078  0.276434  -0.716858
-0.109153  0.551387  -0.827078
-0.455981  0.608406  -0.649556
-0.861994  0.016684  0.506643
-0.927143  0.178369  0.329529
-0.932711  0.3602  -0.017464
0.936559  -0.12973  -0.325619
0.969921  -0.122128  0.210566
0.983657  -0.126575  0.12805
0.965184  0.077012  0.249979
0.958131  -0.16244  0.235792
0.969914  -0.053358  0.237528
0.975432  -0.145655  -0.165282
0.993287  -0.072751  0.089934
0.928996  -0.153758  0.336637
0.929086  -0.067689  0.363616
0.941571  -0.07041  -0.329373
0.906811  0.115189  -0.405494
0.734559  -0.518313  0.43792
0.73066  -0.526941  0.434131
0.852254  -0.423316  0.307355
0.962152  -0.196184  0.189142
0.934252  -0.269589  0.23344
0.621481  -0.684921  -0.380321
-0.531  -0.847224  0.015827
-0.240786  -0.891761  -0.383126
-0.524759  -0.814249  -0.248249
0.458229  -0.795872  -0.395746
0.82959  -0.557115  0.037462
-0.303218  0.827639  0.472306
0.262835  -0.904123  0.336868
0.78381  -0.20173  0.587322
0.450258  0.325211  0.831568
-0.286692  -0.924143  -0.252521
-0.40083  -0.75339  -0.521286
-0.652249  -0.579672  -0.488416
-0.581247  -0.51683  -0.628521
-0.890861  0.344863  -0.295697
-0.944567  0.234521  0.229767
-0.965076  -0.05863  -0.255325
-0.664858  0.237139  -0.708328
-0.620761  -0.245274  -0.744645
0.223036  -0.68701  -0.691572
0.584557  0.291311  -0.757252
-0.655053  0.53957  -0.528932
-0.687976  -0.597547  -0.411857