<?xml version="1.0"?>
<VTKFile type="PolyData" version="0.1" byte_order="LittleEndian" compressor="vtkZLibDataCompressor">
	<PolyData>
		<Piece NumberOfPoints="2627" NumberOfVerts="0" NumberOfLines="0" NumberOfStrips="0" NumberOfPolys="5250">
		<PointData Normals="Normals">
		<DataArray type="Float32" Name="Normals" NumberOfComponents="3" format="ascii">
-0.329718  0.222729  -0.91743
-0.309312  0.173229  -0.93505
-0.330041  0.230672  -0.915349
-0.32317  0.11184  -0.939709
-0.389432  0.041328  -0.920127
-0.39256  0.272132  -0.878545
-0.21388  0.087496  -0.972934
-0.291822  0.218157  -0.931261
-0.311622  0.063342  -0.948093
-0.29354  0.175306  -0.939735
-0.303828  0.210003  -0.929294
-0.33673  0.157875  -0.928272
-0.397563  0.100268  -0.91208
-0.49616  0.054533  -0.866517
-0.349917  0.095067  -0.931944
-0.369244  0.137548  -0.919097
-0.474338  0.040708  -0.879401
-0.304436  0.042601  -0.95158
-0.17496  0.033191  -0.984016
-0.252705  0.041256  -0.966663
-0.261527  0.255918  -0.93065
-0.28045  0.074216  -0.956995
-0.102349  0.140561  -0.984768
-0.314205  0.340876  -0.886047
-0.282397  0.118317  -0.951973
-0.267162  0.420064  -0.867278
-0.285498  0.159949  -0.944938
-0.268516  0.20631  -0.940923
-0.354388  0.333083  -0.873765
-0.379291  0.420203  -0.824359
-0.423589  0.010825  -0.90579
-0.404409  0.134186  -0.904681
-0.512622  0.075581  -0.855281
-0.383358  -0.062772  -0.921464
-0.378975  -0.035921  -0.924709
-0.443722  -0.057439  -0.894322
-0.3403  -0.014221  -0.940209
-0.429571  -0.008641  -0.902992
-0.408741  0.316408  -0.856047
-0.467697  0.135239  -0.873482
-0.244873  0.029831  -0.969096
-0.407409  0.107636  -0.90688
-0.402852  -0.005235  -0.91525
-0.220119  -0.069954  -0.972962
-0.384634  0.150492  -0.910719
-0.353988  0.350371  -0.86714
-0.343268  -0.075266  -0.936217
-0.249381  0.232632  -0.940048
-0.266041  0.490216  -0.830006
-0.410396  0.535028  -0.738458
-0.289072  0.118009  -0.950006
-0.29977  0.480864  -0.823958
-0.25302  0.187302  -0.949157
-0.144025  0.218011  -0.965261
-0.263696  0.217855  -0.939682
-0.413738  0.362691  -0.835031
-0.401247  0.222933  -0.888427
-0.263041  0.258796  -0.929427
-0.352857  0.151616  -0.923312
-0.354105  0.184589  -0.916808
-0.615376  0.124729  -0.778303
-0.399737  0.151568  -0.904012
-0.509446  -0.090666  -0.855713
-0.555826  0.008657  -0.831254
-0.524164  0.017748  -0.851432
-0.470093  0.034433  -0.881945
-0.315519  -0.154271  -0.936295
-0.38653  0.031091  -0.921753
-0.452285  -0.000634  -0.891873
-0.451978  0.293935  -0.84221
-0.443417  0.490116  -0.750445
-0.434252  0.527297  -0.73033
-0.51864  0.549484  -0.655042
-0.514064  0.153024  -0.843992
-0.502486  0.33514  -0.796987
-0.218423  0.021772  -0.975611
-0.146821  -0.133841  -0.980066
-0.373451  0.048032  -0.926406
-0.419562  0.1066  -0.901446
-0.573199  0.276273  -0.771438
-0.308132  -0.207159  -0.928515
-0.135232  -0.264726  -0.954794
-0.344746  -0.106358  -0.932651
-0.519381  0.245065  -0.818649
-0.306972  0.040246  -0.950867
-0.412166  0.36673  -0.834043
-0.514031  0.547932  -0.659956
-0.421233  0.623283  -0.658848
-0.211649  0.209603  -0.954605
-0.145184  0.1088  -0.983404
0.084572  0.433777  -0.897042
0.031432  0.097352  -0.994754
-0.091663  0.443104  -0.891772
-0.266976  0.133086  -0.95447
-0.241241  0.392547  -0.88753
-0.401377  0.422788  -0.812494
-0.518277  0.27742  -0.808967
-0.428374  0.276917  -0.860124
-0.450459  0.24716  -0.857904
-0.39028  0.330088  -0.85949
-0.387556  0.23629  -0.891048
-0.264341  0.191864  -0.945152
-0.147152  0.210779  -0.966395
-0.196877  0.273209  -0.941592
-0.245128  0.305372  -0.920142
-0.287358  0.221026  -0.931973
-0.566711  -0.147878  -0.810538
-0.451866  -0.145294  -0.880174
-0.597172  -0.152754  -0.787434
-0.51115  0.007942  -0.859455
-0.579782  0.049312  -0.813278
-0.57734  -0.185464  -0.795162
-0.563144  0.389289  -0.728919
-0.477398  0.516658  -0.710743
-0.369328  0.663561  -0.650603
-0.59248  0.545958  -0.592366
-0.546711  0.517794  -0.658024
-0.605667  0.429702  -0.669719
-0.65724  0.265058  -0.705535
-0.182987  -0.116379  -0.976203
-0.133337  -0.174103  -0.975658
-0.057359  -0.211179  -0.975763
-0.33054  -0.160472  -0.930049
-0.405051  0.033862  -0.913667
-0.323013  -0.274357  -0.905754
-0.217505  -0.365716  -0.904955
0.042277  -0.248341  -0.96775
-0.066832  -0.417172  -0.906367
0.077816  -0.28798  -0.954469
-0.277192  -0.213314  -0.936836
-0.266329  0.027613  -0.963487
-0.198887  -0.151355  -0.968264
-0.268496  -0.04475  -0.962241
-0.507694  0.322457  -0.798917
-0.523134  0.299597  -0.797855
-0.424589  0.343443  -0.837718
-0.48845  0.429853  -0.75937
-0.470154  0.468024  -0.74827
0.143386  0.331037  -0.93266
0.074944  0.640861  -0.763989
-0.132227  -0.080669  -0.987931
0.062309  -0.150267  -0.98668
-0.1999  0.455434  -0.867537
-0.134472  0.661278  -0.73799
-0.252481  -0.065921  -0.965354
-0.393004  0.288395  -0.873141
-0.265595  0.443248  -0.856149
-0.458836  0.431468  -0.776727
-0.446899  0.443753  -0.776766
-0.599877  0.559702  -0.571735
-0.559799  0.391337  -0.730398
-0.500804  0.5262  -0.687247
-0.462924  0.521475  -0.716774
-0.448756  0.596569  -0.665375
-0.443184  0.633655  -0.63409
-0.375238  0.402759  -0.834855
-0.212112  0.221148  -0.951894
-0.154559  0.240033  -0.958382
-0.27767  0.247282  -0.928305
-0.252277  0.347921  -0.902944
-0.204649  0.438635  -0.875053
-0.24419  0.357564  -0.901398
-0.172927  0.075174  -0.982062
-0.170077  0.233223  -0.957435
-0.365451  -0.129244  -0.921814
-0.580163  -0.050772  -0.812917
-0.541574  -0.108502  -0.833622
-0.602233  -0.04194  -0.797218
-0.653683  -0.204866  -0.728511
-0.439642  -0.148363  -0.885835
-0.574269  -0.106956  -0.81165
-0.690766  -0.214496  -0.690532
-0.528439  -0.123263  -0.839975
-0.634136  0.223053  -0.74035
-0.665112  0.242559  -0.706252
-0.551134  -0.103403  -0.827985
-0.412984  -0.243887  -0.877476
-0.51794  -0.216836  -0.827479
-0.466362  0.417991  -0.779609
-0.578578  0.504543  -0.640846
-0.434679  0.31016  -0.845491
-0.568644  0.357801  -0.740691
-0.427497  0.577309  -0.695672
0.94532  0.201847  -0.256179
0.486377  0.464319  -0.740166
-0.637739  0.596394  -0.487446
-0.691026  0.556609  -0.461161
-0.578481  0.34705  -0.738184
-0.586888  0.420286  -0.692042
-0.727363  0.438471  -0.527907
-0.082284  -0.170249  -0.98196
-0.137803  -0.192019  -0.971668
-0.401618  -0.21332  -0.890616
-0.196045  -0.193774  -0.961259
0.129903  -0.25187  -0.959003
0.007037  -0.222928  -0.974809
0.09409  -0.208858  -0.973409
-0.255267  -0.37254  -0.892218
-0.185743  -0.534919  -0.824234
-0.005017  -0.385162  -0.922835
0.142422  -0.357346  -0.923049
0.051601  -0.277398  -0.959368
0.066571  -0.247225  -0.966669
-0.037297  -0.062524  -0.997346
-0.134508  -0.110011  -0.984787
-0.008709  -0.298573  -0.954347
-0.197233  -0.414693  -0.88833
-0.559648  0.477185  -0.67756
-0.493685  0.482905  -0.723241
-0.556518  0.565377  -0.6088
-0.444631  0.563875  -0.695951
-0.471763  0.733743  -0.488938
-0.125682  0.035741  -0.991427
-0.179306  0.607455  -0.773852
-0.10556  -0.235545  -0.966114
-0.213677  -0.237663  -0.947554
-0.438779  0.434242  -0.786706
-0.245069  -0.129775  -0.960781
-0.411361  0.141849  -0.900367
-0.353685  -0.139589  -0.92489
-0.351858  0.060043  -0.934126
-0.187101  -0.148949  -0.970983
-0.4639  0.399254  -0.790818
-0.393844  0.254568  -0.883223
-0.469782  0.339274  -0.814983
-0.260327  0.426756  -0.866088
-0.42133  0.486887  -0.765129
-0.413376  0.420393  -0.807707
-0.423231  0.313166  -0.850178
-0.250057  0.285854  -0.925073
-0.486992  0.852772  -0.188729
-0.572133  0.679603  -0.459134
-0.473115  0.831597  -0.290875
-0.488388  0.709971  -0.507364
-0.452257  0.820922  -0.348641
-0.409988  0.815087  -0.40932
-0.45432  0.835871  -0.308079
-0.467302  0.845933  -0.256957
-0.39674  0.712209  -0.5791
-0.316342  0.653732  -0.687432
-0.231986  0.42612  -0.874417
-0.168558  0.315209  -0.933933
-0.279919  0.410547  -0.867811
-0.250252  0.502718  -0.827435
-0.175092  0.177151  -0.968484
-0.314728  0.263289  -0.911935
-0.056812  0.256389  -0.964903
0.040086  0.169688  -0.984682
0.187588  0.051254  -0.98091
-0.58563  -0.288883  -0.757354
-0.567256  -0.034075  -0.822836
-0.58209  -0.363162  -0.72752
-0.706177  -0.091684  -0.702074
-0.659534  0.15804  -0.734873
-0.514577  -0.248683  -0.820589
-0.668931  -0.000714  -0.743324
-0.496738  -0.086027  -0.863627
-0.640563  0.522301  -0.562922
-0.699163  0.425297  -0.574712
-0.817709  0.189152  -0.543666
-0.629466  0.543494  -0.555326
-0.516624  -0.209754  -0.830123
-0.379219  -0.238275  -0.894102
-0.549756  -0.021948  -0.835037
-0.672974  0.129064  -0.728318
-0.476998  0.66027  -0.5801
-0.562476  0.445268  -0.696676
-0.572713  0.640387  -0.511766
-0.544158  0.428227  -0.721466
-0.451651  0.857314  -0.247029
-0.558345  0.417832  -0.716706
-0.636658  0.456068  -0.621827
0.755301  0.339498  -0.56059
-0.574189  0.436892  -0.692411
-0.372325  0.456409  -0.808124
-0.582983  0.557874  -0.590684
-0.686346  0.50356  -0.524744
-0.632313  0.74078  -0.226772
-0.604143  0.737374  -0.302144
-0.741176  0.562481  -0.366434
-0.744653  0.416474  -0.521576
-0.808651  0.36158  -0.464051
-0.642856  0.493633  -0.585716
-0.639405  0.462577  -0.614153
-0.587845  0.594727  -0.548395
-0.60379  0.467032  -0.646002
-0.644651  0.64733  -0.40668
-0.156696  -0.139277  -0.977777
-0.054809  -0.28308  -0.957529
0.049717  -0.184802  -0.981517
-0.17185  -0.155706  -0.97274
-0.334357  -0.176441  -0.925783
-0.211804  -0.276284  -0.937447
-0.366436  -0.178926  -0.913078
-0.195303  -0.294936  -0.935344
0.066408  -0.339616  -0.938217
-0.16819  -0.615765  -0.76977
0.004785  -0.521601  -0.853176
-0.133049  -0.672066  -0.72844
0.097451  -0.338278  -0.935987
0.086979  -0.379101  -0.921258
0.139781  -0.316983  -0.938074
0.048554  -0.455239  -0.889044
0.10305  -0.496272  -0.86203
0.090456  -0.279591  -0.955848
0.174314  -0.119251  -0.977442
-0.016652  -0.52353  -0.851845
-0.699746  0.440877  -0.562124
-0.560725  0.770485  -0.303218
-0.630928  0.563332  -0.533467
-0.468939  0.785205  -0.404412
-0.418224  0.897336  -0.140983
-0.501118  0.150461  -0.852198
-0.495155  -0.011478  -0.868729
-0.423654  0.089873  -0.901354
-0.4003  0.057705  -0.914566
-0.215259  -0.078706  -0.97338
0.007019  -0.218185  -0.975882
0.009609  -0.204243  -0.978873
-0.429232  0.193321  -0.882263
-0.184951  -0.076018  -0.979803
-0.227527  0.050551  -0.972459
0.026883  -0.174346  -0.984317
-0.278172  0.475262  -0.834713
-0.32103  0.382581  -0.866355
-0.380102  0.503085  -0.776162
-0.242004  0.15469  -0.957865
-0.371207  0.926786  0.057212
-0.384449  0.923027  -0.014806
-0.38287  0.915989  -0.119891
-0.443262  0.896381  -0.004421
-0.436215  0.892567  -0.114195
-0.354106  0.833294  -0.424535
-0.387016  0.715864  -0.581169
-0.417259  0.841548  -0.343062
-0.249858  0.559032  -0.790604
-0.36277  0.559502  -0.745222
-0.376683  0.593445  -0.71129
-0.034966  0.224016  -0.973958
-0.190894  0.063376  -0.979563
-0.067794  0.154505  -0.985663
0.210055  0.163189  -0.963974
0.083544  0.20896  -0.974349
0.149213  0.170019  -0.974078
0.443607  -0.049315  -0.894864
0.301891  0.091923  -0.948901
0.288092  -0.083655  -0.953942
0.432711  0.114561  -0.894224
-0.51537  -0.180121  -0.837825
-0.65541  -0.481829  -0.581617
-0.674884  -0.542788  -0.499912
-0.657708  -0.379418  -0.65074
-0.508618  -0.224975  -0.83108
-0.660507  0.143146  -0.737048
-0.684277  -0.200087  -0.701235
-0.627707  -0.503827  -0.593416
-0.55478  -0.215841  -0.803512
-0.87327  -0.041575  -0.485459
-0.783656  -0.168939  -0.597782
-0.871821  0.070574  -0.484714
-0.715636  0.57595  -0.395154
0.156738  0.760757  -0.629827
-0.309613  0.734297  -0.604109
-0.843175  0.417186  -0.339133
-0.942706  0.197123  -0.26916
-0.955989  0.034712  -0.291341
-0.525153  0.662304  -0.534386
-0.739893  -0.269473  -0.616394
-0.669874  -0.335824  -0.662186
-0.575918  -0.272359  -0.770804
-0.728815  0.014818  -0.68455
-0.69883  0.142579  -0.700934
-0.469476  0.810813  -0.349535
-0.704049  0.595998  -0.386136
-0.532117  0.64228  -0.551659
-0.500681  0.856883  -0.122759
-0.350162  0.935363  0.049832
-0.347361  0.928244  0.133058
-0.54597  0.753443  -0.366389
-0.641145  0.629911  -0.438343
-0.672904  0.408062  -0.616997
0.414184  0.606197  -0.678952
0.757292  0.518362  -0.397254
-0.712312  0.66946  -0.210796
-0.749343  0.438488  -0.496199
-0.75163  0.657586  -0.051321
-0.810544  0.510883  -0.286386
-0.844863  0.335477  -0.416727
-0.740913  0.622383  -0.252366
-0.832885  0.340703  -0.436148
-0.654894  0.720665  -0.2275
-0.534713  0.818863  -0.208675
-0.462164  0.875247  0.142645
0.021649  -0.366521  -0.930158
-0.09579  -0.400344  -0.911345
-0.002061  -0.574415  -0.818562
0.004904  -0.54353  -0.839375
-0.217851  -0.409457  -0.885938
-0.190017  -0.353897  -0.915779
-0.2157  -0.500884  -0.838206
-0.173651  -0.599581  -0.781248
-0.478241  -0.143947  -0.866352
-0.315007  -0.330404  -0.889721
-0.235034  -0.307775  -0.921973
-0.152129  -0.480946  -0.863451
-0.191492  -0.526483  -0.82834
-0.127909  -0.567824  -0.813151
0.069307  -0.540833  -0.83827
0.032804  -0.637837  -0.769473
0.081456  -0.666572  -0.740977
-0.078629  -0.686744  -0.722634
0.086089  -0.417156  -0.904748
-0.020931  -0.577311  -0.816256
0.067708  -0.339813  -0.938053
0.105587  -0.631397  -0.768238
0.113967  -0.456242  -0.882528
0.130607  -0.549559  -0.825183
-0.10046  -0.583389  -0.805956
0.297187  -0.44386  -0.84538
0.068195  -0.559536  -0.825996
0.160079  -0.404232  -0.900539
0.091583  -0.640727  -0.762287
0.097578  -0.744865  -0.660041
0.145351  -0.76959  -0.621775
0.266442  -0.196353  -0.943639
0.089115  -0.407951  -0.908644
0.208389  -0.287144  -0.934945
-0.014046  -0.555772  -0.831216
-0.407772  0.911792  -0.048552
-0.426576  0.904226  0.020201
0.024943  -0.077951  -0.996645
0.249063  -0.243281  -0.937434
0.252926  -0.246504  -0.935555
0.071106  -0.096508  -0.992789
0.107555  0.027875  -0.993808
-0.368116  0.584516  -0.723071
-0.224379  0.449732  -0.86452
0.005765  0.274259  -0.961638
-0.126129  0.608688  -0.78332
0.030638  0.082899  -0.996087
-0.416654  0.907453  0.054115
-0.452085  0.884114  0.11816
-0.47698  0.87891  -0.002784
-0.448827  0.88699  -0.108642
-0.559731  0.823855  -0.089235
-0.44722  0.860315  -0.244646
-0.453952  0.712725  -0.534744
-0.350529  0.746003  -0.566224
-0.279226  0.779855  -0.560232
-0.345506  0.728784  -0.591185
-0.241948  0.882154  -0.404061
0.212201  0.104029  -0.971673
0.490421  0.178996  -0.852905
0.420597  0.080172  -0.903698
0.508874  0.050098  -0.859382
0.456527  -0.209565  -0.864676
0.598255  -0.098783  -0.795194
0.64412  -0.238152  -0.726906
0.622386  0.110065  -0.774933
0.668978  -0.102015  -0.736248
-0.591239  -0.099828  -0.800294
-0.59555  -0.584945  -0.5506
-0.741824  -0.495007  -0.452399
-0.643442  -0.635317  -0.42703
-0.767133  -0.389105  -0.510004
-0.75095  -0.331572  -0.571081
-0.652711  -0.292961  -0.698672
-0.696791  -0.212014  -0.685224
-0.790214  -0.066599  -0.609202
-0.787682  -0.423755  -0.4472
-0.959054  -0.181693  -0.217261
-0.958337  -0.059468  -0.27938
-0.648506  0.621118  -0.44006
-0.789036  0.592354  -0.162909
-0.469999  0.672676  -0.571496
-0.893537  0.435632  -0.108705
-0.966063  0.246406  -0.077502
-0.989993  -0.031032  -0.13766
-0.980636  -0.189463  -0.049566
-0.843976  -0.409894  -0.345964
-0.800531  -0.428845  -0.418619
-0.808033  -0.257186  -0.530036
-0.855158  -0.110439  -0.506466
-0.485927  0.826237  -0.284969
-0.351584  0.900095  0.25733
-0.465802  0.884234  -0.034056
-0.395867  0.86872  0.297682
-0.452812  0.889111  0.066658
-0.54064  0.84089  -0.024741
-0.655103  0.739154  -0.156497
-0.746094  0.419699  -0.51691
-0.792787  0.573169  -0.207285
-0.787072  0.607548  0.106791
-0.87281  0.44713  -0.195646
-0.878673  0.408951  -0.246359
-0.83419  0.541092  -0.106519
-0.607985  0.784774  0.120353
-0.708086  0.704112  0.053306
-0.371947  0.905451  0.204484
-0.329093  0.870271  0.366505
-0.261284  0.849363  0.458599
-0.139702  -0.641246  -0.754511
-0.035405  -0.829704  -0.55708
0.079113  -0.7499  -0.656804
0.052064  -0.739631  -0.670996
-0.156315  -0.775204  -0.612066
-0.053782  -0.826483  -0.560388
-0.274663  -0.532937  -0.800336
-0.459641  -0.339168  -0.820789
-0.580342  -0.179704  -0.794298
-0.240806  -0.481857  -0.842512
-0.251183  -0.622728  -0.741024
-0.1527  -0.524269  -0.83775
-0.094816  -0.746081  -0.65907
-0.033693  -0.70954  -0.703859
-0.064228  -0.773047  -0.631089
0.064439  -0.861255  -0.50407
0.074884  -0.807119  -0.585621
0.055978  -0.873905  -0.482863
-0.086353  -0.639624  -0.763822
0.120931  -0.585579  -0.801544
0.16097  -0.747347  -0.64464
0.157753  -0.902356  -0.401083
0.090743  -0.802096  -0.59026
0.077634  -0.650862  -0.755216
-0.017741  -0.69941  -0.714501
0.159278  -0.723151  -0.672074
0.335549  -0.488027  -0.805752
0.417101  -0.589183  -0.692019
0.426243  -0.539942  -0.725796
0.238982  -0.635576  -0.734119
0.137861  -0.936052  -0.323729
0.0904  -0.860752  -0.500933
0.093935  -0.923598  -0.371677
0.418918  -0.252329  -0.87226
0.357652  -0.302924  -0.883359
0.107475  -0.528112  -0.842346
0.286534  -0.417223  -0.862452
0.243353  -0.017494  -0.96978
0.324988  -0.095255  -0.940909
0.669965  -0.291247  -0.682878
0.329051  -0.337935  -0.881774
0.464881  -0.345033  -0.815376
0.54583  -0.356381  -0.758328
0.540097  -0.228119  -0.810097
0.383052  -0.010562  -0.923666
-0.228748  0.556414  -0.798798
-0.421742  0.453051  -0.785416
-0.49512  0.605088  -0.623478
-0.530133  0.661801  -0.530075
-0.008143  0.48706  -0.873331
0.218453  0.187071  -0.957749
0.166371  0.383563  -0.908405
-0.17779  0.624051  -0.760888
0.10354  0.506573  -0.855958
-0.002303  0.581628  -0.813452
-0.08933  0.603394  -0.792424
-0.490162  0.868385  0.075152
-0.554391  0.806828  0.204157
-0.274353  0.951229  -0.141044
0.536786  0.832725  -0.135759
-0.643037  0.73226  -0.224276
-0.687471  0.708356  -0.160048
-0.54467  0.825001  -0.15069
-0.55049  0.792797  -0.261599
-0.669707  0.669565  -0.321209
-0.654272  0.756259  0.000208
-0.678191  0.734419  -0.026193
-0.402948  0.860294  -0.312294
-0.326227  0.872287  -0.364267
-0.491431  0.792413  -0.361354
0.749109  0.576318  -0.32664
0.483954  0.786429  -0.38382
0.762839  0.634397  -0.124965
0.671587  0.239278  -0.701225
0.675384  0.154319  -0.72114
0.615957  -0.050395  -0.786166
0.647304  -0.285119  -0.706897
0.78261  -0.257249  -0.566872
0.73155  -0.036316  -0.680819
-0.638277  -0.195383  -0.744599
-0.59229  -0.310649  -0.743431
-0.725261  -0.418722  -0.546505
-0.619079  -0.509384  -0.59772
-0.82608  -0.525631  -0.203234
-0.86958  -0.348578  -0.349749
-0.700512  -0.564386  -0.436751
-0.763309  -0.578851  -0.286865
-0.762433  -0.587937  -0.270234
-0.854225  -0.356  -0.378899
-0.823898  -0.34952  -0.446124
-0.816933  -0.284738  -0.501543
-0.817362  -0.439922  -0.372006
-0.731649  -0.428492  -0.530173
-0.891352  -0.308937  -0.331739
-0.791884  -0.555522  -0.253605
-0.98465  -0.173097  0.02239
-0.966173  -0.251785  0.05581
-0.9318  -0.344014  -0.115777
-0.750723  0.558684  -0.352544
-0.78047  0.614096  -0.117272
-0.796836  0.570545  0.198826
-0.860421  0.506922  0.052018
-0.950079  0.304926  0.066109
-0.999826  0.001878  -0.018531
-0.970143  -0.240557  0.030889
-0.968865  -0.247372  -0.010382
-0.887287  -0.457895  -0.055269
-0.895031  -0.410306  -0.17484
-0.841191  -0.518742  -0.15266
-0.87738  -0.358969  -0.318348
-0.279826  0.850721  0.44494
-0.322317  0.842112  0.432388
-0.573835  0.788196  0.222398
-0.519906  0.797551  0.305957
-0.349603  0.86832  0.35185
-0.747548  0.663636  0.027534
-0.891953  0.436335  -0.118459
-0.742185  0.651569  0.156907
-0.817089  0.544721  -0.188796
-0.892481  0.355418  -0.277769
-0.783852  0.617097  0.069044
-0.661156  0.722998  0.200367
-0.386609  0.838315  0.384398
-0.366055  0.775908  0.513781
-0.188226  0.797033  0.573855
-0.226032  0.82102  0.524248
0.035839  -0.932573  -0.359199
0.037811  -0.924983  -0.378122
0.071775  -0.891852  -0.446597
-0.000374  -0.929456  -0.368933
-0.319337  -0.630527  -0.707432
-0.166763  -0.771963  -0.613403
-0.137826  -0.826098  -0.546413
-0.508316  -0.483368  -0.71272
-0.155853  -0.704101  -0.692786
-0.111928  -0.839847  -0.531158
0.051935  -0.896944  -0.439082
-0.019786  -0.90333  -0.428489
-0.024615  -0.877521  -0.478906
0.049884  -0.963182  -0.264183
0.058536  -0.981047  -0.184718
0.221468  -0.584733  -0.78041
0.268908  -0.887364  -0.37453
0.28593  -0.81482  -0.504293
0.160636  -0.981012  -0.108684
0.180305  -0.667463  -0.722484
0.451119  -0.513308  -0.730073
0.469861  -0.523948  -0.710429
0.06645  -0.795907  -0.601761
0.243317  -0.832955  -0.496973
0.370168  -0.688198  -0.623986
0.460614  -0.544381  -0.701059
0.422027  -0.771317  -0.476406
0.524782  -0.540856  -0.657327
0.51701  -0.6683  -0.53486
0.516786  -0.666887  -0.536837
0.156179  -0.984967  -0.073805
0.612451  -0.260492  -0.746356
0.578074  -0.29496  -0.760808
0.511987  -0.361144  -0.779387
0.437611  -0.441953  -0.783054
0.484281  -0.133326  -0.864694
0.415623  0.026516  -0.90915
0.630154  -0.142457  -0.76329
0.864109  -0.439111  -0.245959
0.703867  -0.389067  -0.594304
0.790909  -0.450651  -0.413978
0.89915  -0.361007  -0.247392
0.860852  -0.190953  -0.471668
0.760966  -0.416055  -0.497824
0.381265  -0.202848  -0.901937
0.660671  -0.419535  -0.622499
0.744867  -0.495216  -0.44714
-0.061113  0.392481  -0.917728
-0.139251  0.521239  -0.841974
-0.593809  0.515104  -0.618109
-0.373018  0.385339  -0.844021
-0.686075  0.543922  -0.483166
0.40016  0.723239  -0.562848
0.410162  0.166421  -0.8967
0.313027  0.37281  -0.873514
0.187543  0.488693  -0.852061
0.322573  0.390203  -0.862374
-0.101468  0.569762  -0.815521
-0.0301  0.487915  -0.872372
0.4595  0.864073  0.205517
-0.089434  0.963638  0.251802
-0.64706  0.744586  0.164026
0.496061  0.849048  -0.181771
-0.772918  0.606131  -0.187626
-0.753439  0.656855  -0.029509
-0.541853  0.81666  -0.198649
-0.596605  0.727501  -0.338828
-0.677288  0.644518  -0.354793
-0.688287  0.571482  -0.446844
-0.464287  0.698021  -0.545164
-0.779309  0.57848  -0.240912
-0.70201  0.705874  0.094466
0.773893  0.356661  -0.523339
0.773586  0.173988  -0.609338
0.794757  0.401929  -0.454769
0.809258  0.220573  -0.544472
0.87035  -0.008673  -0.492357
0.731944  -0.259764  -0.629906
0.860928  -0.105165  -0.497738
0.808954  -0.216297  -0.546635
0.881567  -0.177065  -0.437593
-0.582869  -0.569065  -0.580025
-0.471226  -0.698871  -0.538075
-0.776135  -0.566119  -0.27771
-0.602404  -0.61628  -0.507256
-0.61342  -0.733689  -0.29226
-0.850323  -0.491161  -0.188978
-0.847939  -0.511248  -0.140088
-0.802151  -0.53149  -0.272163
-0.892205  -0.374037  -0.253114
-0.854195  -0.423733  -0.301333
-0.90281  -0.313966  -0.293871
-0.689314  -0.707838  -0.154312
-0.65967  -0.702997  -0.265766
-0.665269  -0.746358  0.019165
-0.667184  -0.738197  -0.099655
-0.852462  -0.451571  -0.263424
-0.830535  -0.522992  -0.191551
-0.835779  -0.497667  -0.23195
-0.699877  -0.713746  0.027205
-0.691132  -0.713743  -0.113609
-0.605022  -0.752223  -0.260976
-0.933172  -0.289058  0.213624
-0.942802  -0.332428  0.024806
-0.815624  0.569976  0.099424
-0.818873  0.53214  0.215114
-0.725604  0.436679  0.531798
-0.861895  0.435292  0.260112
-0.665897  0.684999  0.295563
-0.888165  0.429793  0.162603
-0.996956  0.059195  0.050748
-0.989007  -0.119286  0.087383
-0.955978  -0.288957  0.051084
-0.937975  -0.330806  0.103782
-0.919085  -0.372758  -0.127803
-0.927002  -0.350413  -0.13371
-0.91737  -0.390347  -0.077856
-0.417511  0.877874  0.234567
-0.601904  0.687254  0.406685
-0.661223  0.695768  0.280521
-0.217735  0.828159  0.516472
-0.762868  0.629459  0.147692
-0.923016  0.335549  -0.18828
-0.970086  0.240624  -0.032131
-0.790649  0.519634  0.323813
-0.769142  0.631102  -0.100656
-0.644221  0.763685  0.042006
-0.906294  0.394278  -0.152235
-0.321636  0.852634  0.411783
-0.203828  0.77079  0.603603
-0.558121  0.663001  0.49893
-0.324592  0.747781  0.579192
-0.468745  0.690576  0.550803
-0.134996  0.809519  0.571362
0.034138  -0.981747  -0.187101
0.057768  -0.975633  -0.211669
-0.299472  -0.790988  -0.533531
-0.115891  -0.895747  -0.429193
0.014552  -0.965035  -0.261718
0.005294  -0.876802  -0.480822
-0.004711  -0.944653  -0.328037
0.088235  -0.976076  -0.198722
0.052937  -0.998546  0.010132
0.606457  -0.400585  -0.686835
0.237948  -0.953735  -0.183769
0.287303  -0.951342  -0.111378
0.275292  -0.681201  -0.678366
0.65069  -0.327223  -0.685221
0.826706  -0.313592  -0.467137
0.717388  -0.475791  -0.508899
0.438595  -0.759851  -0.479854
0.182207  -0.849445  -0.495221
0.647035  -0.598398  -0.472509
0.389179  -0.87288  -0.294312
0.461223  -0.811242  -0.359388
0.656259  -0.574771  -0.488838
0.447536  -0.843711  -0.296417
0.129625  -0.989522  -0.063581
0.239776  -0.967175  -0.084139
0.685515  -0.305273  -0.660967
0.625524  -0.107562  -0.772755
0.669792  -0.361173  -0.648793
0.859541  -0.437312  0.264475
0.845656  -0.495069  0.199431
0.922619  -0.381863  0.054351
0.874051  -0.485785  -0.006832
0.850405  -0.443193  -0.283533
0.968963  -0.218162  -0.116259
0.923504  -0.189372  -0.333583
0.662404  -0.55381  -0.504495
0.742684  -0.643546  -0.18512
0.633433  -0.691613  -0.347037
-0.181432  0.278112  -0.943258
0.8047  0.198843  -0.559393
0.627572  0.272121  -0.729454
-0.172003  0.304677  -0.936796
-0.120398  0.397605  -0.909624
0.042126  0.446858  -0.893613
-0.667651  0.607284  -0.430636
-0.500218  0.609104  -0.615446
-0.189438  0.303356  -0.933857
-0.337724  0.489547  -0.80392
0.547846  0.170034  -0.819118
0.350535  0.364823  -0.862572
0.03934  0.373548  -0.926776
-0.124975  0.294879  -0.947327
-0.199945  0.324026  -0.924678
0.947121  0.30481  0.100267
-0.78992  0.568712  0.229331
-0.644429  0.729172  0.230257
-0.436011  0.855085  0.280577
-0.729337  0.609781  0.310218
-0.707847  0.672707  0.215447
-0.814032  0.556951  -0.164798
-0.810089  0.584353  -0.047831
-0.728184  0.680002  -0.085706
-0.732506  0.67947  0.041897
-0.786438  0.617542  0.012502
-0.749652  0.661692  0.013616
-0.720932  0.625463  -0.298419
-0.551147  0.732644  -0.399337
-0.453602  0.814696  -0.361269
-0.57237  0.721009  -0.390562
-0.727159  0.653334  -0.210699
-0.804277  0.582779  -0.116221
-0.816237  0.566741  0.112077
0.823898  0.477716  -0.304926
0.87225  0.299184  -0.386871
0.881001  0.299509  -0.36624
0.910284  0.086862  -0.40477
0.858875  0.457636  -0.230008
0.968986  0.101383  -0.225361
0.826786  -0.255217  -0.501288
0.964509  0.050971  -0.259084
0.914507  -0.094813  -0.393302
0.840296  -0.243577  -0.484328
0.862755  -0.211406  -0.459306
-0.382521  -0.889251  -0.250818
-0.295089  -0.875347  -0.383002
-0.57817  -0.805311  0.131129
-0.800591  -0.598082  -0.03677
-0.598743  -0.800134  -0.035964
-0.85128  -0.518611  -0.079775
-0.550192  -0.828398  0.105103
-0.572701  -0.817259  0.064043
-0.824916  -0.538329  0.17238
-0.693682  -0.656678  0.295936
-0.501017  -0.797863  0.335255
-0.470851  -0.857765  0.206249
-0.667758  -0.729398  0.148587
-0.674695  -0.727769  0.123041
-0.469963  -0.809604  0.351677
-0.476473  -0.82466  0.30481
-0.496641  -0.861106  0.108832
-0.408836  -0.912524  0.012398
-0.974557  -0.199379  0.102406
-0.955818  -0.266278  0.124534
-0.935009  -0.350242  -0.055582
-0.79402  0.374118  0.479133
-0.413202  0.739077  0.532005
-0.781229  0.077731  0.619386
-0.509705  0.338668  0.790888
-0.300436  0.938407  0.170676
-0.740209  0.661609  0.119845
-0.959515  0.250382  0.128999
-0.980975  -0.075242  0.178961
-0.959045  -0.269428  0.087415
-0.938439  -0.344978  0.017937
-0.863531  -0.503036  -0.035623
-0.852525  -0.521558  -0.034341
-0.794395  -0.57006  0.209684
-0.677335  0.5822  0.449733
-0.881134  0.441039  -0.17055
-0.896199  0.235381  -0.376062
-0.854563  -0.021587  -0.518899
-0.800342  -0.391523  -0.454051
-0.888751  -0.458373  0.003966
-0.516308  0.824542  0.231423
-0.810897  0.575733  0.104775
-0.341275  0.830434  0.440354
-0.158402  0.828385  0.537296
-0.102837  0.784827  0.611122
-0.190362  0.780332  0.595687
-0.130441  0.786261  0.603969
-0.570164  0.617928  0.541367
-0.407597  0.701357  0.584777
-0.488965  0.664018  0.56568
0.048828  -0.998143  0.036415
-0.074376  -0.962564  -0.260652
0.076764  -0.991157  -0.108235
0.096017  -0.995332  0.009766
-0.015924  -0.994135  0.106966
0.066278  -0.995878  0.061918
0.958735  -0.231337  -0.165259
0.829489  -0.295482  -0.47396
0.800311  -0.35309  -0.484592
0.753108  -0.361308  -0.549804
0.623632  -0.601474  -0.499311
0.243494  -0.955073  -0.168955
0.405562  -0.869066  -0.283275
0.02395  -0.999543  -0.018435
-0.024301  -0.990595  -0.134648
0.147864  -0.977083  -0.15312
0.741991  -0.323059  -0.587437
0.69433  -0.147675  -0.704343
0.691649  -0.441457  -0.571609
0.804595  -0.56567  0.180676
0.909592  -0.322208  0.262345
0.878142  -0.465979  0.108301
0.698753  -0.706613  0.111548
0.992883  -0.048414  0.108809
0.574538  -0.632315  -0.519695
0.550111  -0.831272  -0.079785
0.51096  -0.812137  -0.281697
0.811241  0.183731  -0.555095
-0.155545  0.326184  -0.932421
-0.082594  0.339694  -0.936902
-0.384769  0.664885  -0.64022
-0.216611  0.487756  -0.84568
0.560095  0.138666  -0.816741
0.366221  0.326944  -0.8712
0.04078  0.190747  -0.980792
0.280582  0.362609  -0.8887
0.253107  0.295456  -0.921218
-0.163565  0.202954  -0.96543
-0.821697  0.413625  0.392081
-0.847898  0.472791  0.239869
-0.75673  0.527657  0.385924
-0.783453  0.621369  -0.010096
-0.799803  0.596958  0.062904
-0.522807  0.781455  -0.340588
-0.419154  0.79702  -0.434821
-0.051166  0.94185  -0.332116
-0.296736  0.843783  -0.447188
-0.259617  0.884991  -0.38651
-0.601508  0.755103  -0.260782
-0.664421  0.723288  -0.188146
-0.843085  0.479689  0.243117
-0.746675  0.626547  0.223417
0.889954  0.385782  -0.243216
0.889346  0.297863  -0.346903
0.942712  0.256003  -0.213905
0.950178  0.248875  -0.18768
0.947881  0.152844  -0.279573
0.791946  -0.025725  -0.610048
0.872882  -0.151414  -0.463843
0.773523  -0.255994  -0.579766
0.72618  -0.244925  -0.642397
0.790076  -0.26649  -0.552053
0.724783  -0.195781  -0.660575
-0.150557  -0.977544  -0.147447
-0.176696  -0.97812  0.109818
-0.457888  -0.856386  0.238625
-0.403063  -0.818042  0.410302
-0.315325  -0.84354  0.434752
-0.330628  -0.856299  0.396783
-0.493796  -0.75346  0.434123
-0.295769  -0.829738  0.473345