<?xml version="1.0"?>
<VTKFile type="PolyData" version="0.1" byte_order="LittleEndian" compressor="vtkZLibDataCompressor">
	<PolyData>
		<Piece NumberOfPoints="2270" NumberOfVerts="0" NumberOfLines="0" NumberOfStrips="0" NumberOfPolys="4536">
		<PointData Normals="Normals">
		<DataArray type="Float32" Name="Normals" NumberOfComponents="3" format="ascii">
0.849241  -0.362044  -0.384334
0.727621  -0.394404  -0.56126
0.631344  -0.4382  -0.639833
0.687186  -0.41468  -0.596503
0.875637  -0.289538  -0.386559
0.843345  -0.408615  -0.349004
0.923809  -0.348434  -0.158654
0.929332  -0.26633  -0.255755
0.481936  -0.473828  -0.737037
0.674446  -0.380153  -0.632934
0.34056  -0.511611  -0.788843
0.377055  -0.493761  -0.7836
0.551637  -0.534489  -0.640327
0.739831  -0.465486  -0.48577
0.669088  -0.296205  -0.681604
0.863751  -0.24034  -0.442911
0.944185  -0.210318  -0.253536
0.961154  -0.238347  -0.139188
0.962968  -0.204197  -0.176059
0.866231  -0.457969  -0.199773
0.944041  -0.329732  0.008005
0.064405  -0.569334  -0.81958
0.418246  -0.387006  -0.821765
0.24303  -0.49626  -0.833464
0.577509  -0.352833  -0.736201
0.109526  -0.540448  -0.834218
0.033797  -0.572357  -0.819308
0.187525  -0.625242  -0.757566
0.447609  -0.685788  -0.573882
0.710296  -0.542993  -0.447928
0.744988  -0.204038  -0.635107
0.423889  -0.210318  -0.880957
0.533089  -0.211645  -0.81916
0.946602  -0.098328  -0.307044
0.865406  -0.103459  -0.490274
0.961522  -0.113812  -0.250044
0.964115  -0.214608  -0.156288
0.959843  -0.269161  -0.079084
0.8769  -0.468727  -0.106492
0.945991  -0.321887  0.038597
0.673453  -0.627822  -0.390257
0.793541  -0.578821  -0.187773
0.970868  -0.238304  0.025025
0.938733  -0.220768  0.264655
-0.089767  -0.537624  -0.838392
-0.31992  -0.47541  -0.819535
-0.232009  -0.559729  -0.795535
0.07864  -0.444149  -0.892495
0.103475  -0.391096  -0.914515
0.139772  -0.41015  -0.901244
0.202746  -0.330595  -0.921738
-0.131863  -0.696149  -0.705683
0.059408  -0.75114  -0.657465
0.357527  -0.755638  -0.548804
0.627741  -0.08455  -0.773817
0.089692  -0.291991  -0.952206
0.198265  -0.236176  -0.951269
0.43124  -0.092843  -0.897448
0.544542  0.042535  -0.837654
0.393855  -0.138756  -0.908639
0.913967  -0.018474  -0.405367
0.956334  0.058963  -0.286268
0.784502  0.012177  -0.620007
0.948008  0.127523  -0.291581
0.973193  -0.071783  -0.218499
0.948553  0.014802  -0.316273
0.97188  -0.171291  -0.161582
0.938369  -0.345576  0.006466
0.757183  -0.642566  -0.117402
0.776376  -0.628947  -0.04081
0.832355  -0.539892  -0.125308
0.94551  -0.226546  0.233853
0.594728  -0.719444  -0.358747
0.994081  -0.081023  0.072371
0.950635  -0.150832  0.271188
0.970767  -0.115165  0.210591
0.920318  -0.158327  0.357697
0.871648  -0.219414  0.438278
0.854167  -0.212723  0.474497
0.883345  -0.188615  0.4291
-0.154511  -0.436659  -0.886259
-0.452751  -0.489928  -0.744975
-0.176716  -0.387558  -0.904749
-0.327213  -0.427874  -0.84253
-0.428236  -0.424577  -0.797715
-0.482  -0.443347  -0.755725
-0.450514  -0.512298  -0.731155
-0.394295  -0.570057  -0.72081
-0.185001  -0.700966  -0.688782
0.019765  -0.726058  -0.687349
0.281688  -0.756814  -0.589818
0.463956  0.076737  -0.882528
0.664359  0.098573  -0.740885
-0.026277  -0.263893  -0.964194
0.166795  -0.165944  -0.971927
0.399007  0.095087  -0.912004
0.55896  0.284702  -0.778786
0.475901  0.027045  -0.879083
0.438252  0.333619  -0.834646
0.812742  0.143046  -0.564791
0.867632  0.284813  -0.407549
0.879856  0.306382  -0.363295
0.847954  0.31395  -0.427094
0.944942  0.203349  -0.256385
0.984012  0.05217  -0.17029
0.99762  -0.043355  -0.053607
0.875911  -0.482318  -0.012182
0.917951  -0.31932  0.235375
0.624875  -0.753181  -0.205547
0.669477  -0.731351  -0.130101
0.755641  -0.646746  -0.103568
0.769865  -0.617147  -0.162596
0.889368  -0.248833  0.383546
0.30972  -0.819348  -0.482434
0.957574  -0.04887  0.284014
0.993053  -0.003447  0.117619
0.941899  -0.137669  0.306387
0.856223  -0.224196  0.465423
0.910904  -0.219073  0.349659
0.878523  -0.270965  0.393415
0.815665  -0.299477  0.494979
0.808516  -0.324592  0.490859
0.817372  -0.219722  0.532565
0.845517  -0.280283  0.454469
-0.539487  -0.461429  -0.704299
-0.355341  -0.381155  -0.853495
-0.148699  -0.301559  -0.941781
-0.559482  -0.356991  -0.748022
-0.162358  -0.625489  -0.763153
-0.227141  -0.67894  -0.698174
-0.53182  -0.431773  -0.728519
-0.452098  -0.520251  -0.724532
0.028765  -0.731683  -0.681038
0.300816  0.256211  -0.918622
0.528364  0.243553  -0.813335
0.01615  -0.210875  -0.97738
0.364645  0.032919  -0.930564
0.519046  0.376371  -0.767421
0.413522  0.218257  -0.883948
0.48656  0.474923  -0.733286
0.311206  0.422225  -0.851397
0.412771  0.545599  -0.729343
0.62967  0.381528  -0.676722
0.792588  0.377599  -0.478772
0.718983  0.420841  -0.553133
0.611739  0.459437  -0.643967
0.669959  0.468691  -0.575746
0.898584  0.369434  -0.23678
0.993048  0.10879  -0.044947
0.859894  -0.451701  0.237798
0.802177  -0.596969  -0.011826
0.376325  -0.852846  -0.361985
0.385741  -0.863397  -0.325192
0.294317  -0.857259  -0.422474
0.483123  -0.820162  -0.306474
0.701186  -0.692693  -0.168863
0.789955  -0.612827  0.020359
0.762691  -0.644035  0.059342
0.75839  -0.645839  0.087959
0.793369  -0.608555  0.015024
-0.005941  -0.799305  -0.600896
0.969805  -0.068664  0.234016
0.980443  0.077299  0.180988
0.935264  -0.236189  0.263623
0.852496  -0.267146  0.449315
0.823733  -0.279498  0.4933
0.812647  -0.32172  0.485901
0.861275  -0.330055  0.386355
0.713959  -0.389935  0.581561
0.760195  -0.325995  0.561987
0.75222  -0.349605  0.558517
0.807081  -0.482476  0.340347
-0.573962  -0.383065  -0.72376
-0.255255  -0.299675  -0.919261
-0.558469  -0.173267  -0.811229
-0.482074  -0.204008  -0.852048
0.452747  -0.302276  -0.838838
-0.237497  -0.71723  -0.655115
-0.36336  -0.614783  -0.700009
-0.64647  -0.269332  -0.713819
-0.524705  -0.350466  -0.775795
-0.385556  -0.40474  -0.829175
-0.476409  -0.388735  -0.788618
-0.456993  -0.468768  -0.755919
-0.509279  -0.466642  -0.723105
-0.454353  -0.456562  -0.764927
-0.380169  -0.406844  -0.830632
-0.153414  -0.189829  -0.969757
0.179623  -0.01454  -0.983628
0.2494  0.266725  -0.930944
0.319238  0.430415  -0.844293
0.044819  0.028159  -0.998598
0.161246  0.475146  -0.865006
0.256395  0.488709  -0.833921
0.401575  0.517551  -0.755565
0.427968  0.524869  -0.735769
0.544528  0.580858  -0.605057
0.515233  0.53916  -0.666214
0.404539  0.53703  -0.740234
0.4141  0.570079  -0.709599
0.666324  0.534112  -0.520323
0.979183  0.2012  -0.026821
0.982926  0.173178  0.062174
0.867468  0.463878  -0.179769
0.723669  0.554575  -0.410791
0.957631  0.282528  -0.055863
0.951754  0.301916  0.054872
0.121717  -0.846082  -0.51897
0.14002  -0.842633  -0.519965
0.439495  -0.796561  -0.415132
0.008194  -0.772563  -0.634885
0.744368  -0.642014  -0.183671
0.809538  -0.581672  0.07941
0.775221  -0.523228  0.353928
0.791082  -0.528751  0.30759
0.766764  -0.524361  0.370295
0.772382  -0.527467  0.353842
-0.158976  -0.730226  -0.664453
0.954998  -0.227798  0.189966
0.98098  0.041978  0.189516
0.970661  -0.208804  0.11924
0.987062  0.050696  0.152112
0.940688  -0.295871  0.16603
0.891112  -0.390033  0.231932
0.792631  -0.421917  0.440139
0.792401  -0.470615  0.388101
0.654206  -0.362148  0.663975
0.549284  -0.446669  0.70624
0.674746  -0.508396  0.535025
0.563008  -0.503948  0.655026
0.744932  -0.394928  0.537688
0.690755  -0.342795  0.636671
0.759532  -0.413047  0.502497
-0.38123  -0.200745  -0.902422
-0.668905  -0.153539  -0.727319
-0.483156  -0.014752  -0.87541
-0.545205  -0.129057  -0.828309
-0.57558  0.120373  -0.808838
-0.561582  0.063241  -0.825001
0.746795  -0.151556  -0.647556
0.461687  -0.237875  -0.854553
-0.254125  -0.601926  -0.757037
-0.608248  -0.289143  -0.73921
-0.639967  -0.263792  -0.721704
-0.643501  -0.136187  -0.753233
-0.664664  -0.107951  -0.739303
-0.397108  -0.286226  -0.871997
-0.254113  -0.386668  -0.886518
-0.305716  -0.359084  -0.881814
-0.362928  -0.422755  -0.830398
-0.412964  -0.444508  -0.794905
-0.227325  -0.369648  -0.900935
-0.316742  -0.104222  -0.942769
-0.194053  0.109865  -0.97482
-0.031443  0.325379  -0.945061
-0.075478  0.41674  -0.905887
0.144445  0.449036  -0.881761
-0.110663  0.354737  -0.928394
-0.033927  0.432051  -0.901211
0.248058  0.497252  -0.831389
0.599949  0.5093  -0.616988
0.686441  0.47067  -0.554318
0.477303  0.580874  -0.659369
0.291859  0.614212  -0.733186
0.216638  0.550649  -0.806135
0.026147  0.485366  -0.87392
0.277443  0.64076  -0.715857
0.498173  0.613986  -0.612246
0.971935  0.194902  0.131743
0.984944  0.142594  0.097732
0.703577  0.591263  -0.394194
0.926008  0.376728  -0.024175
0.834493  0.52176  -0.177168
0.687602  0.635225  -0.351699
0.442507  0.669674  -0.596427
0.969561  0.210585  0.124924
0.973336  0.212137  0.087265
0.921923  0.383432  0.055125
-0.073953  -0.789204  -0.609662
0.24893  -0.784505  -0.567967
0.67868  -0.718121  -0.153932
0.532174  -0.771134  -0.349489
-0.178192  -0.5899  -0.78757
-0.018326  -0.730544  -0.682619
0.725969  -0.687142  -0.028388
0.757581  -0.63616  0.146192
0.751409  -0.533876  0.387763
0.722258  -0.447111  0.527669
0.719511  -0.395389  0.570939
0.646517  -0.501883  0.574569
0.974258  -0.219799  0.050101
0.999433  -0.019193  0.027665
0.984825  -0.17  0.034918
0.944842  -0.319331  0.07281
0.87183  -0.416691  0.25745
0.931604  -0.3499  0.098409
0.919467  -0.36464  0.147031
0.850707  -0.470456  0.234454
0.847376  -0.433719  0.306335
0.714542  -0.521671  0.466143
0.795415  -0.465629  0.38795
0.66865  -0.558651  0.490731
0.561669  -0.397482  0.725628
0.388066  -0.485975  0.783092
0.522168  -0.545084  0.655914
0.524797  -0.611381  0.592284
0.429892  -0.544033  0.72057
0.576522  -0.396128  0.714636
-0.372505  0.188923  -0.908597
-0.688854  -0.037446  -0.723932
-0.674473  0.091769  -0.732574
-0.435666  0.217212  -0.873507
-0.422121  0.318007  -0.848932
-0.567487  0.278878  -0.774716
-0.399053  0.299233  -0.866727
-0.449448  -0.123592  -0.884716
-0.633144  -0.06683  -0.771143
-0.671038  0.04208  -0.740228
-0.378975  -0.216075  -0.899828
-0.19212  -0.31695  -0.92878
-0.293896  -0.257179  -0.920589
-0.39727  -0.318702  -0.860585
-0.401881  -0.302769  -0.864189
-0.190899  -0.560955  -0.805535
-0.329523  -0.411394  -0.849806
-0.230035  -0.378503  -0.89656
-0.310267  -0.387436  -0.868117
-0.295655  -0.358802  -0.885352
-0.1973  -0.438854  -0.87663
-0.2612  0.278961  -0.924097
-0.234478  0.328679  -0.914872
-0.190867  0.425489  -0.884607
0.249543  0.571426  -0.781793
0.533616  0.580353  -0.615178
0.507294  0.580622  -0.636814
0.281412  0.68199  -0.675053
0.499442  0.598204  -0.626665
-0.168804  0.532816  -0.829224
-0.101786  0.533473  -0.83967
-0.298162  0.503216  -0.811094
-0.396943  0.38772  -0.831931
-0.420051  0.38517  -0.821706
0.981664  0.185156  -0.045301
0.470207  0.692743  -0.54682
0.888742  0.453211  -0.068836
0.636144  0.7207  -0.275523
0.82094  0.565262  -0.08085
0.425239  0.739212  -0.522243
0.974007  0.206515  0.09307
0.972265  0.233881  -0.000935
0.973302  0.229296  -0.010351
0.911676  0.408416  -0.045206
0.963707  0.26548  -0.028095
0.762703  0.642659  -0.072619
-0.01619  -0.840698  -0.541261
0.171319  -0.845138  -0.506352
0.438113  -0.784125  -0.439551
0.593845  -0.803938  -0.032134
0.668417  -0.709594  0.222924
0.390172  -0.87549  -0.285102
-0.081166  -0.721442  -0.687702
0.640363  -0.621082  0.451876
0.5418  -0.637813  0.547401
0.456266  -0.479768  0.749429
0.994486  0.087597  -0.057664
0.983399  0.161543  -0.082649
0.987797  -0.154354  -0.020778
0.939967  -0.340663  0.020292
0.746272  -0.58393  0.319535
0.864849  -0.482537  0.138544
0.634597  -0.641298  0.431305
0.388701  -0.424924  0.817527
0.20249  -0.461715  0.863607
0.232473  -0.522277  0.820477
0.347359  -0.631496  0.69322
0.472303  -0.704113  0.530241
0.366119  -0.406152  0.837256
0.416361  -0.397984  0.817467
-0.637374  -0.014751  -0.770414
-0.53839  0.197231  -0.81929
-0.684686  0.097648  -0.722267
-0.524143  0.329732  -0.785208
-0.50864  0.249066  -0.824167
0.947754  -0.005492  -0.318956
0.753397  0.107383  -0.648739
-0.54817  0.05183  -0.834759
-0.457745  0.06209  -0.886913
-0.549308  -0.132495  -0.825049
-0.596681  -0.05292  -0.800732
-0.652972  0.148497  -0.742681
-0.495548  0.209371  -0.842968
-0.671338  0.052011  -0.739324
-0.648598  0.11243  -0.752782
-0.636101  0.169983  -0.75265
-0.469759  -0.32135  -0.822229
-0.504735  -0.338271  -0.794239
-0.533009  -0.342118  -0.773858
-0.497449  -0.324942  -0.804336
-0.589714  -0.2842  -0.755955
-0.207137  -0.724066  -0.657892
-0.100628  -0.707139  -0.699878
-0.158822  -0.367481  -0.916369
-0.150638  -0.527515  -0.836084
-0.141673  -0.348302  -0.926615
-0.440419  -0.406374  -0.800557
-0.174675  -0.293195  -0.93996
-0.429815  -0.388549  -0.815039
0.124499  0.596838  -0.792644
0.527412  0.663919  -0.530139
0.496088  0.544475  -0.676346
0.20489  0.586073  -0.783925
-0.317678  0.409898  -0.855023
0.498997  0.756535  -0.422678
0.6287  0.743459  -0.228046
0.952409  0.280101  -0.120253
0.873734  0.445183  -0.195964
0.746236  0.63892  -0.186849
0.91953  0.285094  -0.27053
0.95295  0.262807  -0.151057
0.958668  0.223715  -0.175804
0.968828  0.10322  -0.225206
-0.001422  -0.765192  -0.643801
0.046555  -0.934402  -0.353165
0.104403  -0.79404  -0.598832
0.238574  -0.889287  -0.390194
0.284722  -0.897016  -0.338075
0.578801  -0.734472  0.354316
0.521006  -0.851656  0.056878
0.437917  -0.89809  -0.040782
0.5725  -0.764252  0.296922
0.566166  -0.771215  0.291004
0.456466  -0.622424  0.635789
0.267849  -0.584672  0.765778
0.280702  -0.450662  0.847414
0.937866  0.274215  -0.212635
0.981789  0.117955  -0.148921
0.987651  -0.127989  -0.090358
0.917539  -0.391859  -0.067591
0.973482  -0.161389  -0.162133
0.788327  -0.596861  0.149322
0.569666  -0.73536  0.367051
0.558146  -0.776968  0.291193
0.725449  -0.653072  0.217305
0.849989  -0.526683  0.011086
0.162331  -0.445049  0.88067
-0.038864  -0.497159  0.866788
0.160194  -0.617419  0.77015
0.299986  -0.734979  0.608123
0.22482  -0.701834  0.675933
0.275238  -0.804579  0.52621
0.462677  -0.778898  0.423377
0.24232  -0.410885  0.878894
0.747361  0.180548  -0.639417
0.951587  0.057718  -0.301912
-0.54033  0.269397  -0.797163
0.119145  0.289405  -0.949763
-0.546687  0.231344  -0.804744
0.439336  0.110814  -0.891462
-0.387753  0.172265  -0.905523
-0.559498  0.089437  -0.823992
-0.668267  -0.177725  -0.72238
-0.644016  -0.078747  -0.760948
-0.50257  0.17614  -0.846403
-0.613673  0.139937  -0.77706
-0.642854  0.115992  -0.757155
-0.666992  0.122253  -0.734966
-0.373801  0.211004  -0.903189
-0.652588  0.212467  -0.727315
-0.599024  0.136417  -0.789025
-0.654989  -0.245354  -0.714696
-0.576713  -0.141006  -0.804686
-0.502849  -0.367002  -0.782593
-0.301592  -0.774181  -0.556495
-0.459824  -0.755964  -0.465918
-0.345339  -0.647533  -0.679295
-0.037396  -0.675176  -0.736708
-0.258565  -0.760848  -0.595192
-0.226453  -0.491564  -0.840882
-0.123996  -0.365758  -0.922413
-0.531437  -0.511794  -0.675013
-0.410396  -0.357529  -0.838897
-0.587703  -0.448127  -0.673637
-0.579319  -0.559054  -0.593168
-0.247497  -0.376914  -0.89257
-0.065404  0.512081  -0.856443
0.590937  0.579352  -0.561378
0.629232  0.555377  -0.543712
0.691344  0.565634  -0.449558
0.698642  0.606406  -0.379698
0.265179  0.533  -0.803487
0.041438  0.507307  -0.860769
0.446197  0.558547  -0.699238
-0.101647  0.522934  -0.84629
-0.281654  0.439432  -0.852978
-0.49933  0.312015  -0.80828
0.928872  0.280207  -0.24224
0.775524  0.502116  -0.382678
0.751733  0.561712  -0.345509
0.852216  0.208612  -0.4798
0.945917  0.028651  -0.32314
0.937937  0.10999  -0.328903
0.901783  0.334689  -0.273443
0.886905  0.2593  -0.382314
0.897907  0.066682  -0.435105
0.888648  -0.216097  -0.404484
0.873218  -0.143337  -0.465773
0.112743  -0.718965  -0.685842
0.507354  -0.85231  -0.127117
0.463016  -0.812202  -0.354886
0.37163  -0.799832  -0.47134
0.585144  -0.797414  0.147437
0.488519  -0.790673  0.369034
0.268697  -0.659894  0.701671
0.171398  -0.566076  0.806338
-0.072543  -0.61112  0.788207
0.100671  -0.557867  0.823802
0.973672  0.098096  -0.205768
0.910065  -0.408452  -0.070342
0.962832  -0.222784  -0.152713
0.958657  0.100568  -0.266199
0.959571  0.000865  -0.281465
0.761742  -0.637821  0.113723
0.496709  -0.778914  0.382849
0.676006  -0.714151  0.181672
0.468462  -0.834941  0.28882
0.423361  -0.822346  0.380147
0.510311  -0.822613  0.25078
0.607877  -0.767206  0.204646
0.858232  -0.510592  -0.052288
0.777359  -0.628857  0.015854
-0.309682  -0.532945  0.787443
-0.316952  -0.505667  0.802398
-0.147768  -0.561529  0.814156
-0.006117  -0.566711  0.823894
0.076229  -0.604075  0.793273
0.05419  -0.665253  0.744649
0.170419  -0.671958  0.720715
0.065906  -0.707923  0.703208
0.269913  -0.735236  0.621752
0.17358  -0.733685  0.656945
0.30524  -0.825463  0.474805
0.20444  -0.839433  0.503544
0.446088  -0.720375  0.531098
0.184632  -0.848353  0.496193
-0.469975  0.211193  -0.857042
0.745548  0.18279  -0.640895
0.956691  0.064791  -0.283803
-0.673385  0.081308  -0.734807
0.951845  0.072067  -0.297989
0.745835  0.12727  -0.653859
-0.642758  -0.101583  -0.759304
-0.6241  0.044611  -0.78007
-0.643951  0.030346  -0.764465
0.437381  0.11562  -0.891813
-0.683367  0.113664  -0.721173
-0.604257  0.133972  -0.785446
-0.667799  0.111652  -0.73592
0.448574  0.073686  -0.890703
-0.399572  0.314925  -0.860909
-0.331806  0.270455  -0.903747
-0.624503  0.191294  -0.757234
-0.481778  0.181992  -0.857187
-0.682819  -0.022437  -0.730243
-0.651724  0.053426  -0.756573
-0.641846  0.036127  -0.765982
-0.649434  0.101224  -0.753651
-0.530868  0.154432  -0.833265
-0.63757  -0.111677  -0.762255
-0.733749  -0.112906  -0.669973
-0.668628  -0.150946  -0.728115
-0.574049  -0.274838  -0.771318
-0.45726  -0.313852  -0.832112
-0.603105  -0.439816  -0.665452
-0.636515  -0.521587  -0.568151
-0.45207  -0.829911  -0.326926
-0.395272  -0.860242  -0.322093
-0.590155  -0.764662  -0.258862
-0.485196  -0.81577  -0.314808
-0.525696  -0.589466  -0.61333
-0.614819  -0.649781  -0.446969
-0.183753  -0.802597  -0.567515
-0.342608  -0.89827  -0.275193
-0.382494  -0.471335  -0.794696
-0.648425  -0.651821  -0.393286
-0.494708  -0.44718  -0.745181
-0.617937  -0.53675  -0.574502
-0.666871  -0.58754  -0.458344
-0.704829  -0.624462  -0.336548
0.470764  0.586937  -0.6587
0.320525  0.599696  -0.733232
0.520873  0.497224  -0.693873
0.634993  0.521459  -0.569969
0.723488  0.499845  -0.476151
0.796598  0.436357  -0.418359
0.724131  0.472016  -0.502826
-0.099678  0.475824  -0.873874
0.153717  0.517418  -0.841814
-0.284712  0.363018  -0.887219
-0.282551  0.419359  -0.86273
0.894448  0.306469  -0.325637
0.766772  0.381239  -0.516447
0.750537  0.363699  -0.55174
0.769548  0.216661  -0.600712
0.839219  0.042837  -0.542103
0.835667  -0.193491  -0.514026
0.926692  -0.030776  -0.37456
0.834761  0.387623  -0.391054
0.839669  0.311918  -0.444593
0.884737  0.04482  -0.463931
0.825844  0.227331  -0.516045
0.788477  -0.169862  -0.591144
0.762665  -0.287631  -0.579319
-0.003462  -0.871832  -0.489793
0.549118  -0.826063  -0.126846
0.235098  -0.918161  -0.318919
0.471824  -0.877012  -0.090734
0.249471  -0.963389  0.098215
0.181422  -0.845535  0.502153
-0.061086  -0.67097  0.738964
-0.273595  -0.617867  0.737148
0.957112  -0.278055  -0.08138
0.95015  -0.291214  -0.1114
0.839302  -0.535484  -0.093967
0.907084  -0.381024  -0.178939
0.950883  0.050409  -0.305418
0.889415  0.262926  -0.373914
0.658503  -0.74293  0.120121
0.404483  -0.857861  0.316968
0.302322  -0.85593  0.419505
0.486515  -0.851387  0.196067
0.454056  -0.850117  0.266709
0.551046  -0.819307  0.158383
0.704722  -0.702661  0.098154
0.78532  -0.619025  0.008939
-0.392685  -0.566988  0.724102
-0.461811  -0.568851  0.680544
-0.489345  -0.617253  0.616068
-0.477562  -0.588536  0.65235
-0.348519  -0.504019  0.790253
-0.306972  -0.61073  0.729916
-0.348018  -0.533676  0.770762
-0.128721  -0.637078  0.759975
0.004173  -0.639127  0.76909
-0.070211  -0.724898  0.685269
0.073053  -0.735813  0.673233
0.377649  -0.718428  0.58416
0.190067  -0.866903  0.460819
0.224912  -0.845437  0.484408
0.159309  -0.856035  0.491757
0.331557  -0.808006  0.487027
0.082978  -0.842291  0.532598
-0.471385  0.121373  -0.873536
-0.645029  0.027345  -0.763669
-0.681479  0.118243  -0.722222
-0.679272  0.076158  -0.729925
-0.618018  0.143638  -0.772931
-0.589725  0.193406  -0.784104
-0.185447  0.443295  -0.876983
-0.271966  0.388869  -0.880236
0.001201  0.400621  -0.916243
0.105824  0.313365  -0.943718
-0.095647  0.467262  -0.87893
-0.357787  0.221165  -0.907235
-0.480629  0.179967  -0.858259
-0.612009  0.029803  -0.790289
-0.642021  -0.016219  -0.766515
-0.516693  0.114682  -0.848455
-0.819364  -0.217814  -0.530282
-0.732525  -0.020983  -0.680416
-0.842877  -0.115775  -0.525504
-0.819026  -0.190989  -0.541036
-0.914174  -0.23133  -0.332823
-0.757068  -0.392202  -0.522519
-0.673648  -0.390198  -0.62765
-0.778208  -0.504728  -0.373688
-0.724386  -0.496035  -0.478763
-0.758784  -0.606042  -0.238663
-0.528671  -0.844722  -0.083385
-0.502215  -0.864185  -0.031042
-0.448126  -0.8939  0.01119
-0.532757  -0.840962  -0.094622
-0.563237  -0.81012  0.162697
-0.670911  -0.668295  -0.321341
-0.711687  -0.700601  -0.051586
-0.637536  -0.762068  0.11314
-0.268712  -0.958174  -0.098475
-0.399813  -0.912241  0.089246
-0.373018  -0.925692  0.06286
-0.772498  -0.630462  -0.075922
-0.732499  -0.65211  -0.195444
0.211613  0.583462  -0.784087
-0.013821  0.511097  -0.859412
0.290775  0.480666  -0.827291
0.495508  0.474209  -0.727735
0.411304  0.568521  -0.712469
0.60754  0.535242  -0.586866
0.660761  0.4387  -0.609046
0.758247  0.433594  -0.486886
0.698408  0.39469  -0.597031
0.639241  0.446761  -0.62592
0.702559  0.456457  -0.545947
0.684867  0.313318  -0.657867
0.706861  0.227067  -0.669917
0.675294  0.339392  -0.654822
0.782649  -0.102736  -0.613927
0.793437  0.123999  -0.595887
0.749442  -0.303885  -0.58821
0.847733  -0.242233  -0.471881
0.895722  0.189521  -0.402198
0.861991  0.192842  -0.46881
0.853726  -0.189723  -0.48493
0.851608  -0.032817  -0.52315
0.822631  0.16203  -0.545
-0.035796  -0.999327  0.008056
-0.042147  -0.812414  0.581556
-0.104556  -0.93537  0.337862
-0.294835  -0.859999  0.416503
-0.267406  -0.709545  0.651951
-0.396561  -0.735573  0.549247
-0.443796  -0.735373  0.512124
0.949818  -0.125689  -0.286442
0.849256  -0.523192  -0.070953
0.943096  -0.170365  -0.285563
0.91446  -0.361165  -0.182545
0.356077  -0.879051  0.316983
0.160749  -0.874837  0.456968
0.225058  -0.869621  0.439441
0.203706  -0.898308  0.389289
0.479001  -0.860831  0.171837
0.57621  -0.798957  0.17219
0.490031  -0.847891  0.20236
0.665684  -0.73884  0.104786
0.761965  -0.647594  0.005657
-0.574572  -0.620934  0.533206
-0.723935  -0.619261  0.30403
-0.715357  -0.614072  0.333437
-0.525457  -0.607663  0.595517
-0.355098  -0.547591  0.75766
-0.563434  -0.715943  0.412272
-0.610386  -0.668708  0.424568
-0.664111  -0.658453  0.354114
-0.659664  -0.650715  0.37605
-0.670664  -0.643355  0.369193
-0.362198  -0.608365  0.70619
-0.307014  -0.720444  0.621854
-0.438856  -0.541261  0.717246
-0.131398  -0.800564  0.584664
-0.05216  -0.822401  0.566512
0.140824  -0.883083  0.447586
0.219464  -0.861117  0.458599
-0.00662  -0.775075  0.631835
0.028154  -0.822175  0.568538
0.110545  -0.870877  0.478909
-0.050041  -0.845502  0.531623
-0.009865  -0.868978  0.494752
-0.002145  -0.79631  0.604885
-0.097657  -0.819846  0.564194
-0.809455  0.110051  -0.576776
-0.854672  0.128717  -0.50296
-0.665987  0.048392  -0.744392
-0.796188  0.002689  -0.605043
-0.597244  -0.034629  -0.801312
-0.598756  0.218775  -0.770473
-0.561087  0.140702  -0.815711
0.734515  0.298277  -0.609523
-0.113285  0.306812  -0.945004
0.732073  0.233786  -0.639855
-0.416695  0.165833  -0.893792
-0.266688  0.301034  -0.915563
-0.479714  0.14893  -0.864693
-0.494591  0.16033  -0.85421
-0.596306  0.0999  -0.796517
-0.503941  -0.062547  -0.861471
-0.619251  -0.088929  -0.780141
-0.449516  0.206109  -0.869169
-0.945635  -0.233752  -0.226127
-0.945454  -0.168546  -0.278763
-0.90175  0.038102  -0.430576
-0.977774  -0.006365  -0.209563
-0.878144  -0.319171  -0.356361
-0.932409  -0.280342  -0.228083
-0.962539  -0.255334  -0.091233
-0.973508  -0.228581  0.005757
-0.833185  -0.501848  -0.232275
-0.824682  -0.561248  -0.070003
-0.507911  -0.829792  0.23124
-0.477482  -0.832931  0.279711
-0.400221  -0.840533  0.36514
-0.728876  -0.674163  0.119352
-0.278304  -0.932283  0.231074
-0.758723  -0.643614  0.100499
-0.760356  -0.619479  0.195203
-0.810233  -0.583068  0.059615
0.481722  0.46411  -0.743334
0.187522  0.520475  -0.833031
0.38452  0.562352  -0.732055
0.143389  0.516769  -0.844032
0.690166  0.39536  -0.606103
0.43482  0.399383  -0.807109
0.578852  0.353799  -0.734681
0.853871  0.30738  -0.420026
0.78349  0.394559  -0.480069
0.562161  0.381736  -0.733657
0.640699  0.46541  -0.610653
0.584199  0.474944  -0.658133
0.619325  0.372414  -0.69119
0.696206  0.231213  -0.679587
0.54211  0.387605  -0.745573
0.542627  0.480088  -0.689255
0.653422  0.394064  -0.646339
0.71209  0.049473  -0.700342
0.672401  -0.146186  -0.725608
0.682395  -0.217797  -0.697784
0.822184  -0.334137  -0.460831
0.865008  -0.362019  -0.347422
0.89808  -0.232466  -0.373379
0.849211  -0.231435  -0.474634
0.776496  -0.174504  -0.605477
0.90042  0.08861  -0.425901
0.858129  -0.03752  -0.512061
0.856946  -0.504348  -0.106194
0.972871  0.01908  -0.230559
0.976291  -0.086851  -0.198275
0.951376  -0.277682  -0.133325
0.409696  -0.872128  0.267471
0.302451  -0.861532  0.407781
0.095199  -0.866814  0.48946
0.202095  -0.865259  0.458785
0.312159  -0.85126  0.421798
0.070666  -0.810343  0.581679
-0.038695  -0.772363  0.634001
0.639635  -0.762037  0.100828
0.551874  -0.814269  0.180002
0.737654  -0.674992  0.015911
0.871394  -0.484171  -0.079058
-0.817434  -0.559214  0.138136
-0.693349  -0.550368  0.465147
-0.852487  -0.494752  0.168779
-0.803616  -0.559074  0.204053
-0.468004  -0.55527  0.687493
-0.458615  -0.696679  0.551643
-0.267997  -0.793556  0.546303
-0.390409  -0.819618  0.419292
-0.256201  -0.785064  0.563947
-0.675742  -0.445077  0.587604
-0.132602  -0.844381  0.519073
-0.165064  -0.624864  0.763085
-0.141332  -0.726076  0.672933
-0.16513  -0.63526  0.754438
-0.103853  -0.711153  0.695325
-0.000614  -0.773381  0.633942
0.056752  -0.903439  0.424943
-0.011825  -0.88999  0.455826
0.146656  -0.906378  0.396196
0.099818  -0.887052  0.45075
0.086107  -0.618809  0.780808
-0.076988  -0.645712  0.75969
0.085604  -0.694635  0.714251
-0.954911  0.069836  -0.288563
-0.949132  -0.021263  -0.31416
-0.759772  -0.111913  -0.640486
-0.689345  0.027829  -0.723899
-0.874399  -0.167434  -0.455404
-0.466141  -0.091188  -0.879998
-0.417158  -0.08087  -0.905229
-0.507215  -0.175718  -0.843716
-0.472295  -0.148681  -0.86881
-0.49116  0.040292  -0.870137
-0.571868  0.215517  -0.79153
-0.680938  0.048662  -0.730723
-0.429113  0.17019  -0.887072
0.956598  0.14199  -0.254477
-0.049761  0.360841  -0.931299
0.158466  0.413732  -0.896501
-0.246594  0.267245  -0.931543
-0.300959  0.254113  -0.919157
-0.550842  0.426539  -0.717382
-0.395273  0.375784  -0.83818
-0.494647  0.311179  -0.811475
0.949032  0.069032  -0.307528
0.746458  0.145563  -0.649317
-0.269751  0.345358  -0.898867
-0.424877  0.261378  -0.866695
-0.369757  0.182205  -0.911088
-0.552211  0.22596  -0.802499
-0.446375  0.078871  -0.891363
-0.468498  -0.008637  -0.883422
-0.393978  -0.26304  -0.880676
-0.327915  0.296117  -0.897099
-0.984871  -0.170412  -0.03145
-0.996235  -0.084705  -0.018456
-0.999979  0.00592  0.002784
-0.898258  -0.426986  -0.103994
-0.92791  -0.356876  0.107811
-0.986347  -0.065837  0.15095
-0.949734  -0.191461  0.247687
-0.857938  -0.51111  0.052059
-0.069359  0.412706  -0.90822
0.173796  0.595097  -0.784637
0.283099  0.421438  -0.861536
-0.017934  0.521414  -0.853116
-0.124899  0.386391  -0.913839
0.447293  0.363952  -0.816987
0.458436  0.322832  -0.828019
0.550756  0.4944  -0.672485
0.73682  0.441467  -0.512057
0.736428  0.351178  -0.578228
0.848634  0.225198  -0.47865
0.534252  0.643902  -0.547691
0.897051  0.307396  -0.317502
0.697902  0.559805  -0.446712
0.761424  0.580834  -0.287864
0.869257  0.423084  -0.255719
0.596164  0.573092  -0.562276
0.52394  0.308695  -0.793848
0.338164  0.570498  -0.74845
0.484612  0.593584  -0.642502
0.29947  0.63733  -0.71002
0.631994  -0.016799  -0.774791
0.519912  0.205792  -0.82906
0.65076  -0.067866  -0.756244
0.855848  -0.397453  -0.330991
0.866769  -0.290855  -0.40511
0.968462  -0.201583  -0.146443
0.93382  -0.294085  -0.203703
0.93922  -0.080325  -0.333786
0.98758  -0.041396  -0.151568
0.878934  -0.074928  -0.47102
0.778075  0.021443  -0.627806
0.99452  -0.016014  -0.103313
0.922485  -0.115457  -0.368364
0.995919  -0.073753  -0.052022
0.962684  -0.266992  -0.044222
0.372804  -0.785061  0.494667
0.451048  -0.846439  0.283013
0.298161  -0.770735  0.563087
0.280992  -0.699613  0.656952
-0.003127  -0.715724  0.698376
0.190007  -0.734155  0.651854
0.027073  -0.762629  0.64627
0.113749  -0.720577  0.683981
0.253038  -0.663713  0.703886
-0.147733  -0.601933  0.784762
-0.233071  -0.437375  0.868551
0.741859  -0.617549  0.261302
0.748466  -0.654373  0.107683
0.614304  -0.736537  0.283097
0.515797  -0.80244  0.300073
0.480588  -0.777368  0.405874
0.902906  -0.428725  -0.030929
-0.870563  -0.404156  0.280673
-0.839579  -0.360267  0.406589
-0.689186  -0.461861  0.558306
-0.631608  -0.638426  0.439868
-0.217621  -0.897955  0.382516
-0.189323  -0.831855  0.521702
-0.548976  -0.817855  0.172447
-0.637882  -0.703451  0.313471
-0.874046  -0.265436  0.406923
0.082745  -0.914917  0.395071
-0.108693  -0.875331  0.471149
-0.267115  -0.363167  0.892614
-0.275838  -0.410773  0.86901
-0.285138  -0.377206  0.881143
-0.172673  -0.412222  0.894571
-0.24142  -0.371786  0.896377
-0.203162  -0.547311  0.811896
-0.181284  -0.538624  0.822812
0.189921  -0.919468  0.34425
0.251079  -0.892077  0.37571
0.176691  -0.924942  0.336545
0.218646  -0.865524  0.450623
0.051219  -0.486288  0.872296
0.104433  -0.569392  0.815406
0.038019  -0.528199  0.848269