<?xml version="1.0"?>
<VTKFile type="PolyData" version="1.0" byte_order="LittleEndian" header_type="UInt64" compressor="vtkZLibDataCompressor">
  <PolyData>
    <Piece NumberOfPoints="2771" NumberOfVerts="0" NumberOfLines="0" NumberOfStrips="0" NumberOfPolys="5446">
      <PointData Normals="Normals">
        <DataArray type="Float32" Name="Normals" NumberOfComponents="3" format="ascii" RangeMin="0.999999887650655" RangeMax="1.0000001162768397">
          0.9920541048049927 0.12152542173862457 0.032560791820287704 0.7053754329681396 -0.588532030582428 0.39506399631500244
          0.4037403464317322 -0.5150947570800781 -0.7560893297195435 0.7492684721946716 0.602570652961731 0.2747821509838104
          0.742153525352478 0.03760528564453125 0.6691741943359375 0.8150729537010193 0.4827214181423187 -0.3203686475753784
          0.39373335242271423 -0.5759480595588684 0.7164202332496643 -0.6151766180992126 -0.09892956912517548 -0.7821575999259949
          -0.05263872444629669 0.43302881717681885 -0.8998417854309082 -0.5567444562911987 -0.8282270431518555 0.06383933871984482
          -0.029804004356265068 0.8881295323371887 -0.4586259424686432 -0.31091567873954773 0.4541972577571869 -0.8348870277404785
          0.5017029047012329 0.8515450358390808 -0.15220114588737488 0.59096759557724 0.019074520096182823 0.806469738483429
          0.39548933506011963 -0.4009949862957001 0.8263118267059326 -0.8006556630134583 0.018923308700323105 -0.5988258719444275
          -0.5762490630149841 -0.812125027179718 0.09159669280052185 -0.6507618427276611 -0.04527338966727257 -0.7579309344291687
          -0.4617997109889984 -0.22071512043476105 -0.8590843081474304 -0.21219897270202637 0.2758259177207947 -0.9374921321868896
          0.5479817390441895 0.8355618119239807 0.039400506764650345 0.4539737105369568 0.1163545623421669 0.883385181427002
          0.212528258562088 -0.33515048027038574 0.9178812503814697 -0.4867057204246521 -0.8678886294364929 0.0994332879781723
          -0.49729177355766296 -0.8644768595695496 0.07335226237773895 -0.35857897996902466 -0.2556389272212982 -0.8978139162063599
          -0.012763370759785175 0.344285786151886 -0.9387781023979187 0.5201588273048401 0.8515296578407288 0.06581952422857285
          0.3167818784713745 0.20052769780158997 0.927058756351471 0.017945202067494392 -0.29908955097198486 0.9540563821792603
          0.10697770118713379 0.13444620370864868 0.9851294755935669 -0.33639276027679443 -0.4180545508861542 -0.843842625617981
          -0.2245195358991623 -0.3327508568763733 -0.9158972501754761 0.19100448489189148 0.36702683568000793 -0.910389244556427
          0.5139674544334412 0.8466736674308777 0.13777238130569458 0.1267184466123581 0.16263794898986816 0.9785148501396179
          0.020144784823060036 0.24397026002407074 0.9695734977722168 -0.5181456208229065 -0.7083813548088074 0.47929227352142334
          -0.0381225049495697 -0.33956798911094666 -0.9398086667060852 0.3470463752746582 0.3736288845539093 -0.8602094650268555
          0.48799893260002136 0.8593326807022095 0.15298496186733246 0.48892173171043396 0.8675703406333923 0.09097903221845627
          -0.15510153770446777 0.29242852330207825 0.9436255097389221 -0.5442118644714355 -0.7855218052864075 0.29459986090660095
          0.14121165871620178 -0.3645145893096924 -0.920428454875946 0.47832751274108887 0.3867523968219757 -0.788432240486145
          0.630668580532074 0.4305066764354706 -0.6456943154335022 0.12537626922130585 0.8499879837036133 0.5116652250289917
          -0.4244242310523987 0.2627889811992645 0.8664905428886414 -0.6115752458572388 -0.36970075964927673 0.6994978189468384
          -0.23916040360927582 -0.9287917613983154 -0.28310465812683105 0.42214202880859375 -0.2139986902475357 -0.8809089660644531
          0.6277766227722168 -0.18108835816383362 -0.7570359706878662 0.7184920907020569 0.53547203540802 -0.44389060139656067
          -0.5529419183731079 0.38551315665245056 0.7386709451675415 -0.5527899265289307 0.36171045899391174 0.7507255673408508
          -0.6867654323577881 -0.5380383729934692 0.4887411594390869 -0.026661597192287445 -0.8925691843032837 -0.45012158155441284
          -0.2663618326187134 -0.94191575050354 -0.20456348359584808 0.7931435704231262 -0.1618608981370926 -0.5871322751045227
          0.47133445739746094 0.7904687523841858 0.3911559581756592 -0.42006877064704895 0.6850581765174866 0.5951785445213318
          -0.6927965879440308 0.3497926890850067 0.6306171417236328 -0.8426332473754883 -0.09292401373386383 0.5304096937179565
          -0.9671362042427063 -0.15345795452594757 0.20272685587406158 0.04920853674411774 -0.8512406945228577 -0.5224631428718567
          0.9113476276397705 -0.190090149641037 -0.36511802673339844 0.9424881339073181 0.3325076401233673 -0.03398232161998749
          0.2505500018596649 0.8842695355415344 0.3940712511539459 -0.8592108488082886 0.2946506142616272 0.418255478143692
          -0.8567833304405212 0.46305543184280396 0.22694048285484314 -0.9720357060432434 -0.19591620564460754 -0.12947383522987366
          -0.008889876306056976 -0.8949565291404724 -0.4460647702217102 0.9109900593757629 -0.3738301396369934 -0.17420713603496552
          0.9975786805152893 0.06623154133558273 0.021216008812189102 0.5103404521942139 0.7600370049476624 0.40236353874206543
          0.4854946434497833 0.8026836514472961 0.3464014530181885 -0.8856821060180664 0.46342697739601135 -0.02832922153174877
          -0.9566851258277893 -0.16535642743110657 -0.23960542678833008 -0.17754772305488586 -0.9213276505470276 -0.3458787202835083
          0.9205721616744995 -0.3802233636379242 0.0893145203590393 0.9872651696205139 0.00109329994302243 0.15907958149909973
          0.8978785872459412 0.09305699914693832 0.4302959442138672 0.09717939794063568 0.9716192483901978 0.21566647291183472
          -0.8784734010696411 0.35356658697128296 -0.3213645815849304 -0.8834740519523621 -0.14327219128608704 -0.44603440165519714
          0.06093171611428261 -0.9968078136444092 -0.05158847197890282 0.9137076735496521 -0.06479059159755707 0.40117397904396057
          0.9833217859268188 -0.17392469942569733 0.05318320170044899 0.8943842053413391 0.31216350197792053 -0.32036033272743225
          -0.3970462679862976 0.5474329590797424 -0.7366624474525452 -0.48555952310562134 0.2899394929409027 -0.824722409248352
          -0.301736444234848 -0.2184043526649475 -0.9280380606651306 0.7144419550895691 -0.6959035396575928 -0.07273964583873749
          0.97944575548172 0.11092226952314377 0.16847050189971924 0.6171820163726807 -0.559797465801239 0.5529133677482605
          0.6391598582267761 -0.654890775680542 -0.40322810411453247 0.6831476092338562 0.1357239931821823 0.7175572514533997
          0.8068802356719971 0.44578683376312256 -0.3875802457332611 0.762238621711731 0.31641754508018494 0.5646878480911255
          0.35884663462638855 -0.4873894453048706 0.7960406541824341 -0.45632725954055786 0.16366352140903473 -0.8746311664581299
          -0.588763952255249 -0.799233078956604 0.12076239287853241 0.6187921762466431 0.29305025935173035 0.7288469672203064
          0.5119659304618835 0.8204377293586731 -0.254504919052124 -0.2968262732028961 0.6466509699821472 -0.7026639580726624
          -0.12800458073616028 0.6416522860527039 -0.7562388181686401 -0.10750941187143326 0.41435039043426514 -0.9037452340126038
          0.3298785090446472 -0.32743164896965027 0.8854200839996338 -0.6580533981323242 0.16002747416496277 -0.7357695698738098
          -0.641082227230072 -0.7648628950119019 0.06323166191577911 0.4798751473426819 0.37101393938064575 0.7950273156166077
          0.47859373688697815 0.8190515041351318 -0.31639015674591064 -0.06806688755750656 0.27643805742263794 -0.9586181640625
          -0.4869635999202728 0.046700190752744675 -0.8721729516983032 -0.3382076025009155 -0.058018241077661514 -0.9392814040184021
          0.10482452809810638 -0.30683621764183044 0.9459721446037292 -0.6157887578010559 -0.7879022359848022 0.003782013664022088
          0.37926992774009705 0.4817032814025879 0.790010392665863 0.4937174916267395 0.7685982584953308 -0.4068164527416229
          0.07491292804479599 0.2414766103029251 -0.9675108194351196 -0.1804320067167282 -0.1870550960302353 -0.9656369686126709
          -0.9987959265708923 0.031336404383182526 0.03774634376168251 0.15091125667095184 0.07734496146440506 0.9855168461799622
          0.1573255956172943 0.3782773017883301 0.9122253060340881 0.5227987766265869 0.5940955281257629 -0.6113361120223999
          0.050016190856695175 -0.04575236141681671 -0.9976999163627625 -0.013647039420902729 -0.1647394448518753 -0.9862427115440369
          0.12910835444927216 0.7818045616149902 -0.6100103855133057 0.13516584038734436 0.36870458722114563 0.9196668863296509
          0.0005962498835287988 0.29107293486595154 0.9567007422447205 0.5326431393623352 0.7638977766036987 -0.3643508553504944
          0.15941199660301208 -0.049985770136117935 -0.9859458208084106 0.06447172909975052 -0.17334221303462982 -0.9827491641044617
          -0.4370441734790802 -0.8712000846862793 0.2236132174730301 0.03268372267484665 0.28125 0.9590778350830078
          -0.09509237110614777 0.3095310926437378 0.9461226463317871 0.4761432111263275 0.8708968758583069 0.12176366150379181
          0.2982337474822998 -0.021372389048337936 -0.954253613948822 0.15482020378112793 -0.2639288902282715 -0.9520358443260193
          -0.5990121364593506 -0.7690052390098572 0.2231934815645218 -0.14502158761024475 0.1478261649608612 0.9783231019973755
          -0.37171295285224915 0.21031183004379272 0.9042114019393921 0.21902874112129211 0.9092084765434265 0.3540712594985962
          0.5524352192878723 0.2793837785720825 -0.7853406071662903 0.3306599259376526 -0.4119304120540619 -0.8491038680076599
          -0.47981053590774536 -0.7714805603027344 0.4178512394428253 -0.24880057573318481 0.31992557644844055 0.9141913652420044
          -0.47329241037368774 0.3789004981517792 0.7952538728713989 0.09982673078775406 0.9436960220336914 0.3153928220272064
          0.6720996499061584 0.41805604100227356 -0.61115562915802 0.5593789219856262 -0.2917490005493164 -0.7758722305297852
          -0.47117993235588074 -0.8697158694267273 0.14691390097141266 -0.5274852514266968 0.1926824450492859 0.8274254202842712
          -0.6937882900238037 0.28365814685821533 0.6619635224342346 -0.08035141229629517 0.9140604138374329 0.3975389897823334
          0.7780624032020569 0.46155527234077454 -0.4261285066604614 0.7575607895851135 -0.2025631219148636 -0.6205399036407471
          -0.18818867206573486 -0.9681203961372375 -0.16531191766262054 -0.7491734027862549 -0.05469363555312157 0.6601120233535767
          -0.8960661292076111 0.14246872067451477 0.42043814063072205 -0.5560840368270874 0.6981426477432251 0.45096272230148315
          0.7392423748970032 0.6728910207748413 -0.027173474431037903 0.9275295734405518 -0.06534191966056824 -0.3679938316345215
          0.08707093447446823 -0.9218554496765137 -0.37762561440467834 -0.8942380547523499 -0.2854939103126526 0.34471940994262695
          -0.9867590665817261 0.09952753037214279 0.12806597352027893 -0.5825560688972473 0.754220187664032 0.30295252799987793
          0.7072959542274475 0.6760333776473999 0.20666702091693878 0.9799601435661316 -0.15254555642604828 -0.12809397280216217
          0.36504560708999634 -0.8305609822273254 -0.42060691118240356 -0.8907283544540405 -0.4499230980873108 -0.06459252536296844
          -0.9965266585350037 0.06596025824546814 -0.050831638276576996 -0.277107298374176 0.9227590560913086 0.26781967282295227
          0.7800360321998596 0.5632052421569824 0.2726602852344513 0.9495992064476013 -0.3121725618839264 0.028453586623072624
          0.43988534808158875 -0.8485749959945679 -0.29397499561309814 -0.6182358264923096 -0.7161540389060974 -0.32389503717422485
          -0.9239686727523804 -0.19932442903518677 -0.3264225721359253 -0.48686981201171875 0.8639748096466064 -0.12847356498241425
          0.7915001511573792 0.4729519188404083 0.38709697127342224 0.9049679636955261 -0.27077746391296387 0.32819586992263794
          0.08156964927911758 -0.9791094064712524 -0.1862555742263794 -0.3899317681789398 -0.8247657418251038 -0.40952983498573303
          -0.7661274671554565 -0.24602028727531433 -0.5937362313270569 0.07456773519515991 0.6350662708282471 -0.7688500881195068
          0.7305924892425537 0.6828056573867798 -0.00332646700553596 0.9492690563201904 0.02417020872235298 0.31353461742401123
          0.08237169682979584 -0.8470364809036255 -0.5251134037971497 -0.618772029876709 -0.6799691915512085 -0.39339953660964966
          0.4909098446369171 -0.8690396547317505 0.061461832374334335 0.35620495676994324 -0.1033407598733902 -0.9286757707595825
          0.7849299311637878 0.5574861764907837 -0.27035951614379883 0.18481072783470154 -0.027072016149759293 0.9824011325836182
          -0.2743878662586212 -0.9264346957206726 0.25774040818214417 0.6334661841392517 0.05874381959438324 0.7715373039245605
          0.1279476284980774 0.603707492351532 -0.7868714332580566 0.2639405131340027 0.7128860950469971 -0.649714469909668
          -0.33846211433410645 -0.31875455379486084 -0.8853468298912048 0.23778118193149567 0.8317554593086243 -0.5016403198242188
          0.40096479654312134 0.8745482563972473 0.2727499306201935 0.5115479826927185 0.8569429516792297 -0.06298661977052689
          0.15556283295154572 0.029034679755568504 0.987399160861969 -0.35838210582733154 -0.8093432188034058 0.4653233587741852
          0.018247660249471664 0.534122109413147 -0.8452104926109314 -0.445358008146286 -0.5381179451942444 -0.7156015038490295
          0.07525313645601273 0.3980494439601898 -0.9142721891403198 0.2699417769908905 0.6241859793663025 -0.7331598401069641
          0.3249683082103729 0.4621434509754181 -0.8251175284385681 0.5524069666862488 0.8260199427604675 -0.11197161674499512
          0.11309992522001266 0.16318494081497192 0.980091392993927 -0.4517733156681061 -0.6919015645980835 0.5631811022758484
          -0.3981476426124573 -0.6009938716888428 -0.6930258870124817 0.22372791171073914 0.3267190456390381 -0.9182594418525696
          0.3316885530948639 0.29405203461647034 -0.8963904976844788 0.3456631898880005 0.36856788396835327 -0.8629453778266907
          0.58308345079422 0.7574640512466431 -0.29370373487472534 -0.004361234605312347 0.1842193454504013 0.9828754663467407
          -0.4961315989494324 -0.633486807346344 0.5937574505805969 -0.32642099261283875 -0.6835936903953552 -0.6528007984161377
          -0.2609477937221527 -0.6739187240600586 -0.6911871433258057 0.4397687315940857 0.336893230676651 -0.8325300812721252
          0.3716260492801666 0.22446686029434204 -0.900837779045105 0.634141743183136 0.7214321494102478 -0.2782084047794342
          -0.13487739861011505 0.16094134747982025 0.9777044653892517 -0.5528433918952942 -0.5926187634468079 0.5858047604560852
          -0.5943059325218201 -0.5777493119239807 0.5594695210456848 -0.13476109504699707 -0.6939336657524109 -0.7073156833648682
          0.5355331897735596 0.3007446229457855 -0.7891494631767273 0.4822657108306885 0.20910677313804626 -0.8507021069526672
          0.6219110488891602 0.7700293660163879 -0.14241300523281097 -0.1960420161485672 0.24566759169101715 0.9493234753608704
          -0.2757609486579895 0.34217673540115356 0.8982599377632141 -0.6620844006538391 -0.5413728952407837 0.5182273387908936
          -0.10429764539003372 -0.7399356961250305 -0.6645427942276001 0.6446338295936584 0.2734820544719696 -0.713901162147522
          0.6409186124801636 0.29295971989631653 -0.7095054388046265 0.5897040367126465 0.8075525760650635 -0.0103903878480196
          0.5956652164459229 0.8024356365203857 0.035777829587459564 -0.3923003077507019 0.4266831576824188 0.8148876428604126
          -0.760597288608551 -0.47899743914604187 0.43823859095573425 -0.0213332436978817 -0.775451123714447 -0.6310470104217529
          0.7510145306587219 0.20126502215862274 -0.6288635730743408 0.7669721841812134 0.36890238523483276 -0.5250377655029297
          0.8421372771263123 0.3507467210292816 -0.40961140394210815 0.5265737771987915 0.838931679725647 0.13752716779708862
          -0.48627492785453796 0.4522325396537781 0.7476781010627747 -0.8061946630477905 -0.4795023500919342 0.3465942442417145
          0.17289578914642334 -0.7862904071807861 -0.593173086643219 0.8414400219917297 0.19705282151699066 -0.5031388998031616
          0.9453062415122986 0.19979161024093628 -0.2578358054161072 0.8878239989280701 0.44208553433418274 -0.12778477370738983
          0.7258296012878418 0.6785665154457092 0.1127784475684166 -0.8387629985809326 0.03126012906432152 0.5435986518859863
          -0.8665778636932373 -0.481078565120697 0.13268861174583435 0.2111692726612091 -0.7180162668228149 -0.6632194519042969
          0.35787197947502136 -0.6796309351921082 -0.6403354406356812 0.9942303895950317 0.012379060499370098 -0.10654868185520172
          0.9005531072616577 0.40223491191864014 0.1649581789970398 0.6470715999603271 0.6638734340667725 0.3749273717403412
          -0.8682600855827332 0.3385680615901947 0.36262375116348267 -0.9068253040313721 -0.3863360583782196 -0.16855904459953308
          -0.8960126042366028 -0.3431364595890045 -0.2818134129047394 -0.06419233977794647 -0.7916172742843628 -0.6076358556747437
          0.9438765645027161 -0.2903880774974823 -0.15739068388938904 0.8967429399490356 0.3155849874019623 0.310255229473114
          0.3494580388069153 0.7718157768249512 0.5312057137489319 -0.9023823142051697 0.38643717765808105 0.19071568548679352
          -0.9605149030685425 0.27821019291877747 0.0031847520731389523 -0.8308627009391785 -0.46799609065055847 -0.30107587575912476
          -0.35331207513809204 -0.7706653475761414 -0.530325710773468 0.8528239130973816 -0.5219469666481018 -0.01620991714298725
          0.8238739967346191 0.3398605287075043 0.453570693731308 0.09956561028957367 0.8575745820999146 0.5046311020851135
          -0.1681353747844696 0.9792627692222595 0.1130264475941658 -0.7382209300994873 -0.1930820196866989 -0.6463353037834167
          -0.3343519866466522 -0.6461225152015686 -0.686100959777832 -0.4623829424381256 -0.5767683982849121 -0.6734539866447449
          0.8536184430122375 -0.3944430649280548 0.34022092819213867 0.76274573802948 0.285396009683609 0.5803172588348389
          0.8771271109580994 0.4654726982116699 0.11825055629014969 -0.14396490156650543 0.057089824229478836 -0.9879347085952759
          -0.39542075991630554 -0.31463947892189026 -0.8629278540611267 -0.47233566641807556 -0.1688781976699829 -0.8650891184806824
          0.49045464396476746 -0.5535871982574463 -0.6730494499206543 0.6093295216560364 -0.3438136577606201 0.7144996523857117
          0.48528993129730225 -0.7584335207939148 -0.4350542426109314 0.6997312903404236 0.5782029032707214 -0.41959190368652344
          0.029330456629395485 -0.7766246795654297 0.6292805075645447 0.6596481800079346 0.7377055883407593 0.1437176913022995
          0.31559038162231445 -0.10022244602441788 0.9435878992080688 0.06443427503108978 0.2852015495300293 -0.9562993049621582
          0.3773799538612366 0.6481525897979736 -0.6614246964454651 -0.6520687937736511 -0.535897433757782 -0.536302387714386
          -0.31884297728538513 -0.7687017321586609 0.554469883441925 0.09773647040128708 0.6285552382469177 -0.7715995907783508
          0.5366040468215942 0.5254969596862793 0.6602341532707214 0.15534445643424988 0.4693615734577179 -0.869234025478363
          0.26064300537109375 0.046742696315050125 0.9643030762672424 -0.18459714949131012 0.4287515878677368 -0.8843619227409363
          -0.5937421917915344 -0.5232999324798584 -0.6112505793571472 -0.3944338262081146 -0.7033553123474121 0.59136563539505
          -0.023260241374373436 0.36609044671058655 -0.9302886128425598 0.44961604475975037 0.43788325786590576 0.7785265445709229
          0.24201606214046478 0.4181613028049469 -0.8755394816398621 0.10150621086359024 0.2936409115791321 -0.9505112171173096
          0.14556899666786194 0.14946554601192474 0.9779927134513855 -0.4718739092350006 -0.602093517780304 -0.6440638899803162
          -0.4008687734603882 -0.6449173092842102 0.6506810784339905 0.5806844830513 0.6928025484085083 -0.4275863766670227
          0.2481044977903366 0.20690470933914185 -0.9463797211647034 0.21618925034999847 0.23552919924259186 -0.9475167989730835
          -0.3116481602191925 -0.6081900596618652 -0.7300549745559692 0.24268195033073425 0.4679707884788513 0.8497698307037354
          -0.43445107340812683 -0.6001206636428833 0.6716454029083252 0.5659248232841492 0.6606423854827881 -0.4932349622249603
          0.3818134665489197 0.19890081882476807 -0.9025834202766418 0.3296442925930023 0.10002228617668152 -0.938791811466217
          -0.22935688495635986 -0.6781261563301086 -0.6982409358024597 -0.5445393323898315 -0.6426194310188293 0.5389964580535889
          0.2078203707933426 0.6347343921661377 0.7442598938941956 0.5904108285903931 0.6168414950370789 -0.5205011963844299
          0.48818469047546387 0.268350213766098 -0.8304600715637207 0.42510122060775757 0.11357014626264572 -0.8979926705360413
          -0.25446513295173645 -0.8113542199134827 -0.526262104511261 -0.5824415683746338 -0.5364258885383606 0.6107447147369385
          0.0828835591673851 0.6292404532432556 0.7727785706520081 0.6190232038497925 0.6353893876075745 -0.4616173803806305
          0.5547164082527161 0.2385576218366623 -0.7971072196960449 0.5297927260398865 0.11491461098194122 -0.8403061032295227
          -0.1614583432674408 -0.814309298992157 -0.5575226545333862 -0.6288383603096008 -0.512489914894104 0.5847361087799072
          -0.10968293994665146 0.5960578918457031 0.7954148054122925 0.6632949709892273 0.6190958619117737 -0.42042842507362366
          0.6705646514892578 0.21527940034866333 -0.7099279761314392 0.657745361328125 0.1814887970685959 -0.7310491800308228
          0.07738520205020905 -0.7852892279624939 -0.6142738461494446 -0.6984913945198059 -0.5191977024078369 0.49248695373535156
          -0.29128319025039673 0.6654709577560425 0.6872426271438599 0.6640496253967285 0.7006857991218567 -0.26091647148132324
          0.8016548156738281 0.21729785203933716 -0.5568943619728088 0.7914173603057861 0.18011263012886047 -0.5841387510299683
          0.30503422021865845 -0.7104144096374512 -0.6342440843582153 -0.733275830745697 -0.6004554629325867 0.3189980089664459
          -0.48176127672195435 0.5554534792900085 0.6777740120887756 0.7601704001426697 0.6442576050758362 -0.0841025859117508
          0.8358156681060791 0.4922507405281067 -0.24310767650604248 0.9000115990638733 0.14140315353870392 -0.4122915267944336
          0.37114447355270386 -0.6862097978591919 -0.6255940794944763 -0.7881514430046082 -0.6034266948699951 0.12121665477752686
          -0.766817033290863 0.13038839399814606 0.6284826397895813 0.7913877964019775 0.5729684829711914 0.21310171484947205
          0.9258378744125366 0.37186428904533386 0.06738930195569992 0.983066976070404 0.05412646010518074 -0.1750703752040863
          0.3771628439426422 -0.6620647311210632 -0.6476253271102905 -0.8743841052055359 -0.4608156085014343 -0.15199138224124908
          -0.8745703101158142 0.28719353675842285 0.3907001316547394 0.12593773007392883 0.8647220134735107 0.48620516061782837
          0.9079030752182007 0.33931928873062134 0.24611854553222656 0.9969133138656616 -0.07541035860776901 0.021841756999492645
          0.5932186841964722 -0.6688833236694336 -0.4479806125164032 -0.8169631361961365 -0.46304604411125183 -0.34374356269836426
          -0.9940703511238098 0.10872778296470642 0.0015073878457769752 -0.07274060696363449 0.8937254548072815 0.44267773628234863
          0.8611437678337097 0.34570711851119995 0.37271687388420105 0.9700297117233276 -0.21390028297901154 0.11527828872203827
          0.6652033925056458 -0.7048970460891724 -0.2462209165096283 -0.5920708775520325 -0.693523108959198 -0.41046035289764404
          -0.9922089576721191 0.08235474675893784 -0.09348300844430923 -0.19329306483268738 0.9231305122375488 0.3323670029640198
          0.8194303512573242 0.23304997384548187 0.5236616730690002 0.8567154407501221 -0.35438019037246704 0.3747711479663849
          0.593889057636261 -0.8040009140968323 -0.02963692881166935 -0.3217669129371643 -0.8218100666999817 -0.4702065587043762
          -0.901555061340332 -0.113933265209198 -0.41739392280578613 0.5309162735939026 0.7058582901954651 -0.4689263105392456
          0.7899864315986633 0.1631241887807846 0.5910261273384094 0.8634655475616455 -0.39422956109046936 0.31465885043144226
          0.6280519366264343 -0.5885515213012695 0.5090755224227905 -0.004622484091669321 -0.41883453726768494 -0.9080508351325989
          -0.6416903138160706 0.07695133984088898 -0.7630936503410339 -0.1761491298675537 -0.6342248916625977 0.7528149485588074
          0.37373143434524536 -0.9024771451950073 0.21414901316165924 0.7597595453262329 -0.05074906349182129 0.6482205390930176
          0.41821011900901794 0.33095648884773254 0.8459125757217407 -0.3370714485645294 -0.5421220660209656 0.7697314620018005
          0.87347412109375 0.07850998640060425 -0.48049893975257874 0.15868587791919708 -0.9188311696052551 -0.3613421320915222
          -0.48924753069877625 -0.8138604760169983 -0.31347712874412537 0.568394124507904 0.6687092185020447 -0.47932863235473633
          0.5133626461029053 0.6912865042686462 -0.5085091590881348 0.24513831734657288 0.41945981979370117 0.8740484118461609
          -0.4065515995025635 -0.4510873854160309 0.7945035696029663 -0.5143484473228455 -0.7387610673904419 -0.4355200529098511
          -0.6083403825759888 -0.6821417212486267 -0.40571480989456177 0.5825218558311462 0.6284964084625244 -0.5154228210449219
          -0.6507384777069092 -0.7465753555297852 -0.13843657076358795 0.1842426359653473 0.39527255296707153 0.8998968005180359
          -0.4415511190891266 -0.41033804416656494 0.7979068756103516 -0.6086557507514954 -0.7596679925918579 -0.22900354862213135
          0.6840274930000305 0.6097217202186584 -0.40043193101882935 -0.6575562953948975 -0.7425730228424072 -0.12729910016059875
          -0.6774240732192993 -0.7310006022453308 0.08206591010093689 -0.5589599013328552 -0.36028793454170227 0.7468308806419373
          0.04893266037106514 0.4405801296234131 0.8963786959648132 0.6929192543029785 0.5931701064109802 -0.4098929166793823
          -0.568688154220581 -0.8205215930938721 -0.057776257395744324 -0.6350022554397583 -0.7701324820518494 0.06056515872478485
          -0.676857590675354 -0.3132343888282776 0.6661441326141357 0.003999987617135048 0.5918412208557129 0.8060446381568909
          0.7516188621520996 0.4493904113769531 -0.4828222095966339 -0.6003805994987488 -0.7902241945266724 -0.12283669412136078
          -0.6464499831199646 -0.7583117485046387 0.0840584859251976 -0.6940656900405884 -0.23877273499965668 0.679161548614502
          -0.03480365499854088 0.6363500952720642 0.7706148028373718 0.8195522427558899 0.46099159121513367 -0.34032440185546875
          -0.4786079525947571 -0.7707871794700623 -0.4205014109611511 -0.5875891447067261 -0.7708345651626587 -0.24607563018798828
          -0.7723729610443115 -0.1681159883737564 0.6125168800354004 -0.14302539825439453 0.59590744972229 0.790213942527771
          0.8761796951293945 0.46106812357902527 -0.1404464989900589 -0.3493572771549225 -0.8079105019569397 -0.47458401322364807
          -0.386835515499115 -0.7888329029083252 -0.47759902477264404 -0.8802339434623718 -0.17354050278663635 0.44166943430900574
          -0.38514745235443115 0.5539069771766663 0.7381385564804077 0.8278828859329224 0.5532427430152893 0.09237115830183029
          -0.258737176656723 -0.8263329267501831 -0.500229001045227 -0.39424899220466614 -0.8206110000610352 -0.4137212038040161
          -0.9631209969520569 -0.18776638805866241 0.1927219182252884 -0.7400423884391785 0.4265805184841156 0.5199675559997559
          0.7262217402458191 0.6329478025436401 0.2682892382144928 -0.11388438194990158 -0.8787248730659485 -0.46354377269744873
          -0.32027730345726013 -0.8555228114128113 -0.4068206250667572 -0.9869852066040039 -0.15847298502922058 0.027322981506586075
          -0.8168102502822876 0.4718007445335388 0.33200162649154663 0.6619973182678223 0.6490122675895691 0.37489011883735657
          0.00936360564082861 -0.8914892673492432 -0.4529450237751007 -0.1723116636276245 -0.8723690509796143 -0.4574723541736603
          -0.9840542674064636 -0.1609921008348465 -0.07562246173620224 -0.8477912545204163 0.47150734066963196 0.2427567094564438
          0.7269944548606873 0.5138358473777771 0.4554688334465027 0.4505009651184082 -0.7879869341850281 -0.4196731150150299
          0.190119668841362 -0.870429277420044 -0.4541005790233612 -0.9855701923370361 -0.06223471462726593 -0.15741091966629028
          -0.7346381545066833 0.6111893653869629 0.29454103112220764 0.619135320186615 0.4740349352359772 0.6260689496994019
          0.3346893787384033 -0.8295820355415344 -0.4469640254974365 0.525764524936676 -0.7439237236976624 -0.41249150037765503
          -0.9203291535377502 -0.0019133727764710784 -0.39114007353782654 -0.8193600177764893 0.5606905817985535 -0.11947975307703018
          0.46410807967185974 0.5139713287353516 0.7214133143424988 0.08837545663118362 -0.9852844476699829 -0.14630180597305298
          0.12098617851734161 -0.9044104218482971 -0.4091506004333496 -0.8249126672744751 0.08287087082862854 -0.5591524839401245
          -0.615635871887207 0.7290785908699036 -0.2990601062774658 0.3263680338859558 0.536033570766449 0.7785576581954956
          0.09133253991603851 -0.985940158367157 0.13992939889431 0.15987934172153473 -0.977145254611969 -0.14009201526641846
          -0.8224451541900635 -0.16713225841522217 -0.5437377691268921 -0.4937196671962738 0.8340759873390198 -0.24608559906482697