<?xml version="1.0"?>
<VTKFile type="PolyData" version="0.1" byte_order="LittleEndian" compressor="vtkZLibDataCompressor">
	<PolyData>
		<Piece NumberOfPoints="212" NumberOfVerts="0" NumberOfLines="0" NumberOfStrips="0" NumberOfPolys="398">
		<PointData Normals="Normals">
		<DataArray type="Float32" Name="Normals" NumberOfComponents="3" format="ascii">
0.458916  0.735698  -0.49814
0.646546  0.477163  -0.595226
0.460386  0.574867  -0.676441
0.647774  0.741283  -0.175749
0.203947  0.631014  -0.748484
0.514927  0.688032  -0.511333
0.364044  0.920999  0.138679
-0.025867  0.997673  -0.063086
0.800612  0.51179  0.311595
0.798472  0.519953  -0.303466
0.565094  0.817515  -0.111074
0.83392  0.539215  0.117368
0.509369  0.810645  0.288787
0.106424  0.944416  0.311051
-0.197389  0.884489  0.422749
0.720562  0.402587  0.564548
0.527583  0.67822  0.511541
0.247272  0.838187  0.486105
0.057536  0.892322  0.447718
0.84621  0.183183  0.500373
0.661344  0.222359  0.716366
0.483602  0.612276  0.625497
0.401217  0.833109  0.380728
0.188123  0.947836  0.257328
0.54176  0.410975  0.733209
0.377002  0.589443  -0.714441
-0.464898  0.6671  -0.582106
-0.24229  0.357706  -0.901855
0.271312  0.106558  -0.956575
0.642522  0.665532  -0.379778
0.40522  0.616322  -0.675237
0.35335  0.075415  -0.932447
0.313341  0.147039  -0.938188
0.530831  0.093905  -0.842259
0.670951  0.394668  -0.627743
0.806719  -0.322855  -0.494943
0.917138  -0.075545  -0.391346
0.961401  0.180013  -0.208096
0.85194  0.476482  -0.217169
0.767232  0.415748  -0.488374
0.780836  -0.520314  -0.345786
0.928668  -0.329299  -0.170698
0.99463  -0.09227  -0.046867
0.954951  0.273169  -0.115966
0.919093  0.392267  0.037344
0.778091  -0.619859  -0.101735
0.886171  -0.461502  -0.04143
0.982123  -0.179748  0.055897
0.97356  0.17771  0.143529
0.863294  0.076122  0.498927
0.779048  -0.576295  0.246916
0.865154  -0.444654  0.231931
0.935912  -0.204794  0.286581
0.87933  0.077646  0.469841
0.576361  0.329417  0.747859
0.859629  -0.408269  0.307172
0.898215  -0.315491  0.306064
0.837514  -0.234139  0.49371
0.734732  -0.049436  0.676554
0.044714  0.146605  0.988184
0.592165  -0.37286  0.714364
0.576335  -0.465357  0.671774
0.590269  -0.453279  0.667923
0.426949  -0.292715  0.855589
0.29066  0.174925  0.940701
-0.429133  -0.048695  0.901928
-0.338599  -0.382424  0.859711
-0.442547  0.583604  0.680851
-0.684963  -0.003338  0.728571
-0.210798  0.904705  0.370234
-0.727449  0.237478  0.643756
-0.854147  0.520029  -0.001852
-0.206459  0.975506  -0.075918
-0.717547  0.59895  -0.355507
-0.33257  0.912458  -0.238365
-0.753402  0.418838  -0.506912
-0.278877  0.958925  0.051874
-0.989158  -0.1036  -0.104088
-0.820941  -0.298814  0.486586
-0.881009  0.041941  -0.471236
-0.751121  -0.405552  0.520907
-0.966419  -0.150011  0.208641
-0.94419  0.109647  -0.310617
-0.619636  0.23428  -0.749109
0.146585  0.20913  -0.966839
0.022774  0.155261  -0.987611
0.011069  0.146231  -0.989189
-0.085363  0.20525  -0.97498
0.274922  0.179486  -0.944565
0.097497  0.412279  -0.905826
-0.84589  0.031235  -0.532442
-0.963413  -0.012721  -0.267718
-0.898746  0.066687  -0.433368
-0.996671  -0.063986  0.050516
0.632346  -0.31168  0.709221
-0.561984  -0.302741  0.769755
-0.058347  0.645923  0.761169
-0.135879  -0.579322  0.803693
0.392662  -0.705936  0.589466
0.149945  -0.460509  0.874899
0.220452  -0.422956  0.878925
-0.545099  -0.412621  0.729802
-0.550406  -0.394611  0.735755
-0.539912  -0.328555  0.77495
-0.613572  -0.310857  0.725877
0.997006  -0.031041  -0.070821
0.98381  -0.129388  -0.124
0.986125  -0.15797  -0.051024
0.869832  -0.421598  -0.256216
0.646443  -0.199927  -0.736302
0.38317  0.205538  -0.900519
0.606596  0.161212  -0.778493
0.771384  -0.107864  -0.627161
0.777407  -0.321356  -0.540711
0.448972  0.374801  -0.811141
0.814467  -0.556501  0.164166
0.890631  -0.331612  0.311144
0.576254  -0.775546  0.2578
0.746491  -0.664086  0.041728
0.814488  -0.568903  0.113836
0.589366  -0.166003  0.790627
-0.767295  -0.188417  0.61299
-0.921793  -0.00392  -0.387664
-0.093538  0.160693  -0.982562
0.650107  0.175633  -0.739266
0.958246  -0.03107  0.284254
0.634952  -0.746424  0.199219
0.785681  -0.59469  0.170438
0.662138  0.013292  0.749264
0.916049  0.17168  0.362465
0.804537  -0.539504  -0.221076
0.854898  0.30253  -0.421456
0.521645  -0.608983  -0.597517
0.136396  0.083216  -0.987153
-0.212886  -0.713225  -0.667825
-0.033313  -0.810462  -0.584843
-0.313009  -0.182993  -0.931954
0.23724  -0.717438  -0.65498
-0.375258  -0.148293  -0.914981
0.478724  -0.54218  -0.68119
-0.203983  -0.804742  -0.557478
-0.976079  -0.141753  -0.164852
-0.251498  -0.669839  0.698616
-0.575387  -0.274393  0.770479
0.077574  -0.722662  0.686834
-0.194234  -0.474098  0.858781
0.102078  -0.874691  0.473811
-0.052963  -0.833727  0.549632
-0.038806  -0.413585  0.909638
0.006201  -0.865646  0.500618
0.304456  -0.952468  0.010537
0.665128  -0.015867  0.746561
0.582109  0.140767  0.800833
0.821074  0.08495  0.564465
0.816661  0.319662  0.4805
0.862232  0.354156  -0.362117
0.711976  0.600983  -0.363195
-0.063911  0.323128  -0.944195
0.02475  0.534066  -0.845081
-0.540232  0.21887  -0.812555
-0.749416  0.124155  -0.650355
-0.833209  0.191805  -0.518627
-0.975187  -0.048451  0.216015
-0.876297  -0.075169  0.47587
-0.458836  -0.190342  0.867894
-0.256341  -0.210716  0.943339
0.299986  -0.167009  0.939211
0.062336  -0.098192  0.993213
0.730915  -0.059856  0.679839
0.685598  -0.111862  0.719334
0.874037  0.014438  0.485644
0.959529  0.03919  0.278868
0.920824  0.140404  -0.363826
0.578406  0.253496  -0.775362
-0.267078  0.133984  -0.954315
-0.207165  0.204877  -0.956613
-0.91018  0.005446  -0.414178
-0.96301  -0.088844  -0.2544
-0.870179  -0.18954  0.454822
-0.679173  -0.195789  0.707383
-0.132739  -0.236906  0.962422
-0.148435  -0.197284  0.969044
0.38994  -0.196652  0.899597
0.84574  0.022864  0.533105
0.834209  0.034026  0.550397
0.924194  0.06929  0.375585
0.86856  0.006912  0.495535
0.800176  0.149408  -0.580858
0.845523  0.14079  -0.515043
-0.315983  0.099211  -0.943563
-0.216632  0.093186  -0.971796
-0.949625  -0.072316  -0.304929
-0.867  -0.063429  -0.494256
-0.695223  -0.19082  0.693002
-0.818766  -0.169711  0.54847
-0.422556  -0.206263  0.882554
-0.545691  -0.141128  0.826017
0.831043  -0.029503  0.555426
0.834118  -0.00455  0.539849
0.856199  0.003379  0.516635
0.882293  -0.000156  0.470701
0.860023  0.100141  -0.500332
0.84811  0.153135  -0.507207
-0.075076  0.082152  -0.993788
0.036533  0.114544  -0.992746
-0.749157  -0.055872  -0.660031
-0.735792  -0.003637  -0.677197
-0.855899  -0.135533  0.499066
-0.841058  -0.170777  0.513281
-0.577933  -0.151264  0.801943
-0.562007  -0.187873  0.805514
-0.501913  -0.174646  0.847102
		</DataArray>
	</PointData>
	<Points>
		<DataArray type="Float32" NumberOfComponents="3" format="ascii">
-0.009357  -0.010036  -0.007856
-0.010113  -0.010628  -0.012293
-0.005751  -0.012393  -0.009177
-0.009587  -0.008686  -0.004887
-0.001042  -0.013203  -0.00797
0.004926  -0.013329  -0.00778
-0.005392  -0.011931  -0.004384
-0.000688  -0.012641  -0.003623
0.006212  -0.009919  -0.001606
-0.009776  -0.007221  -0.0029
-0.006989  -0.010853  -0.002674
-0.009685  -0.006639  -0.000925
-0.006101  -0.011527  -0.000355
-0.001632  -0.012749  4.1e-05
0.003168  -0.01214  1.4e-05
-0.010966  -0.007764  0.002189
-0.00774  -0.011973  0.002722
-0.003865  -0.014444  0.003771
0.000227  -0.015392  0.004438
0.003735  -0.017104  0.007017
-0.013733  -0.009489  0.005649
-0.011323  -0.012143  0.005843
-0.006664  -0.01567  0.007238
-0.004121  -0.016919  0.007897
0.002128  -0.017355  0.010678
-0.010229  0.011257  -0.008116
-0.016565  0.009458  -0.008913
-0.0226  0.00015  -0.008779
-0.019672  -0.005675  -0.008804
-0.014884  -0.011751  -0.011155
-0.01149  -0.01419  -0.014937
-0.015356  0.00815  -0.010269
-0.016029  0.003307  -0.01105
-0.01418  -0.002494  -0.010496
-0.011123  -0.006937  -0.008267
-0.01166  0.005528  -0.006181
-0.012463  -0.000144  -0.005497
-0.011781  -0.004516  -0.005016
-0.0109  -0.007066  -0.004913
-0.0071  0.011211  -0.004532
-0.009296  0.007642  -0.002884
-0.011011  0.004319  -0.002439
-0.012036  0.000749  -0.002667
-0.012136  -0.002561  -0.002979
-0.005171  0.010977  -0.000103
-0.008128  0.00748  -6.6e-05
-0.010493  0.004523  -0.000154
-0.011811  0.000631  -0.000208
-0.011983  -0.002286  -0.000202
-0.006964  0.010672  0.006821
-0.008967  0.007762  0.004901
-0.01121  0.004318  0.004404
-0.012698  0.00033  0.003141
-0.013222  -0.00413  0.004468
-0.011417  0.010028  0.011276
-0.013548  0.004899  0.009863
-0.014871  0.000421  0.008549
-0.014754  -0.002771  0.008016
-0.015063  -0.006286  0.00703
-0.015004  0.005051  0.014066
-0.015594  0.001018  0.013028
-0.015723  -0.003174  0.011095
-0.017002  -0.005548  0.010122
-0.017284  -0.008048  0.008299
-0.016543  -0.010502  0.008
-0.021637  0.00164  0.012487
-0.024802  -0.006831  0.008613
-0.017269  0.009055  0.010983
-0.025204  -0.000674  0.010929
-0.016278  0.011983  0.006461
-0.026911  0.002944  0.009452
-0.028321  0.006336  0.003634
-0.016319  0.012146  0.001409
-0.026861  0.006069  0.000548
-0.017285  0.011343  -0.003255
-0.025526  0.004302  -0.003453
-0.013178  0.010488  -0.009742
-0.027263  -0.023614  -0.007713
-0.026834  -0.017932  -0.00321
-0.027201  -0.016895  -0.007714
-0.02611  -0.010656  0.003417
-0.027814  -0.009128  0.000839
-0.027652  -0.007253  -0.003922
-0.025039  -0.008617  -0.009391
-0.015259  -0.047309  -0.022131
-0.01552  -0.039126  -0.020773
-0.013654  -0.034003  -0.020165
-0.01151  -0.026966  -0.018995
-0.01108  -0.019733  -0.018229
-0.011261  -0.016953  -0.017075
-0.024556  -0.047852  -0.018535
-0.025608  -0.042737  -0.016368
-0.02604  -0.038879  -0.014619
-0.027055  -0.032266  -0.011806
-0.009276  -0.049714  -0.007928
-0.019383  -0.050637  -0.010018
-0.008958  -0.015085  0.012607
-0.00834  -0.02254  0.010901
-0.007115  -0.02669  0.004722
-0.008486  -0.035129  -0.00049
-0.009268  -0.042353  -0.003672
-0.018624  -0.018964  0.001087
-0.019743  -0.029313  -0.002405
-0.0195  -0.03578  -0.004815
-0.020181  -0.042502  -0.007588
-0.007815  -0.049835  -0.014591
-0.006138  -0.040569  -0.009859
-0.004792  -0.032287  -0.008138
-0.003458  -0.02577  -0.009526
-0.000484  -0.021743  -0.011658
-0.003872  -0.023347  -0.012983
-0.007166  -0.022235  -0.014586
-0.009094  -0.036189  -0.014504
0.00205  -0.017995  -0.009994
-0.005836  -0.017989  -0.010815
-0.003149  -0.023945  -0.001898
-0.006957  -0.038475  -0.005361
-0.002206  -0.022298  0.00716
-0.00057  -0.020324  0.002135
0.00117  -0.01937  -0.000979
-0.011116  -0.071821  -0.012425
-0.020548  -0.071261  -0.017357
-0.022394  -0.072183  -0.024932
-0.014015  -0.070733  -0.0257
-0.007666  -0.069125  -0.025577
-0.009599  -0.070744  -0.018446
0.00941  -0.243676  -0.043255
0.012917  -0.241602  -0.046665
0.008288  -0.240272  -0.040753
0.012822  -0.236019  -0.044892
0.012263  -0.240984  -0.05122
0.014063  -0.233464  -0.050313
0.009751  -0.241508  -0.054184
0.010178  -0.235557  -0.055044
0.006772  -0.242521  -0.053265
0.004299  -0.243308  -0.050507
0.004889  -0.237586  -0.056111
0.000318  -0.244179  -0.049408
0.001133  -0.239277  -0.052473
-0.000803  -0.245551  -0.049697
-0.002469  -0.247579  -0.048385
-0.006015  -0.24189  -0.048676
-0.004183  -0.246115  -0.046044
-0.001943  -0.241983  -0.044509
-0.001392  -0.244938  -0.045709
0.000672  -0.241648  -0.04195
-0.000119  -0.243866  -0.044798
0.003665  -0.243547  -0.042997
0.008537  -0.240654  -0.040981
0.009194  -0.243787  -0.043481
0.0025  -0.244073  -0.046853
0.003124  -0.225482  -0.039989
0.005034  -0.232866  -0.040708
0.007103  -0.223076  -0.043483
0.010181  -0.230479  -0.044736
0.006682  -0.221256  -0.046859
0.010114  -0.229923  -0.049335
0.001049  -0.2221  -0.048268
0.004541  -0.22954  -0.052339
-0.000156  -0.232577  -0.050018
-0.003584  -0.224031  -0.045977
-0.004004  -0.233448  -0.048293
-0.003667  -0.224985  -0.042367
-0.00451  -0.234841  -0.043795
-0.000837  -0.225949  -0.038975
-0.001106  -0.234266  -0.040381
0.002966  -0.225788  -0.040306
0.004538  -0.232793  -0.041066
1.1e-05  -0.187811  -0.031452
0.002274  -0.213747  -0.037198
0.003142  -0.187566  -0.034797
0.005377  -0.212413  -0.039724
0.00358  -0.187165  -0.040381
0.005309  -0.211865  -0.043653
-0.004026  -0.188058  -0.040096
-0.000642  -0.211918  -0.045857
-0.004708  -0.212914  -0.04324
-0.008312  -0.189183  -0.036362
-0.00394  -0.21393  -0.038421
-0.006101  -0.188188  -0.032632
-0.001637  -0.214316  -0.035827
-3e-05  -0.187224  -0.03055
0.002217  -0.213549  -0.03733
-0.007424  -0.139402  -0.022247
-0.003629  -0.162056  -0.026292
-0.000825  -0.162913  -0.031307
-0.00303  -0.139136  -0.028764
0.001183  -0.162503  -0.037559
-0.000529  -0.138117  -0.033173
-0.006564  -0.164007  -0.037147
-0.008696  -0.139344  -0.033072
-0.012079  -0.164801  -0.034128
-0.013992  -0.140012  -0.030945
-0.009909  -0.163225  -0.029049
-0.013352  -0.139035  -0.025877
-0.003444  -0.162145  -0.026204
-0.007482  -0.139207  -0.022155
-0.010793  -0.099704  -0.01677
-0.00878  -0.119076  -0.019882
-0.005038  -0.118462  -0.025591
-0.006602  -0.099055  -0.022925
-0.001902  -0.117483  -0.031475
-0.003527  -0.097181  -0.028574
-0.00873  -0.118618  -0.031817
-0.01101  -0.097853  -0.029224
-0.016497  -0.119127  -0.031035
-0.01908  -0.098461  -0.030054
-0.016151  -0.119173  -0.025712
-0.018081  -0.09969  -0.023002
-0.008848  -0.119372  -0.020601
-0.010327  -0.099969  -0.01722
-0.011079  -0.071726  -0.011842
		</DataArray>
	</Points>
			<Polys>
				<DataArray type="Int32" Name="connectivity" format="ascii">
0  2  1
0  3  4
0  4  2
3  5  4
3  6  5
6  7  5
7  8  5
3  9  10
3  10  6
6  10  7
9  11  10
11  12  10
12  10  10
10  10  7
10  14  7
7  14  8
11  15  16
11  16  12
12  16  17
12  17  10
10  17  18
10  18  14
14  18  19
14  19  8
15  20  21
15  21  16
16  21  22
16  22  17
17  22  23
17  23  18
18  23  24
18  24  19
25  31  26
26  31  32
26  32  27
27  32  33
27  33  28
28  33  34
28  34  29
29  34  0
29  0  30
25  35  31
31  35  36
31  36  32
32  36  37
32  37  33
33  37  38
33  38  34
34  38  3
34  3  0
25  39  40
25  40  35
35  40  41
35  41  36
36  41  42
36  42  37
37  42  43
37  43  38
38  43  9
38  9  3
39  44  45
39  45  40
40  45  46
40  46  41
41  46  47
41  47  42
42  47  48
42  48  43
43  48  11
43  11  9
44  49  50
44  50  45
45  50  51
45  51  46
46  51  52
46  52  47
47  52  53
47  53  48
48  53  15
48  15  11
49  54  55
49  55  50
50  55  56
50  56  51
51  56  57
51  57  52
52  57  58
52  58  53
53  58  20
53  20  15
54  59  60
54  60  55
55  60  61
55  61  56
56  61  62
56  62  57
57  62  63
57  63  58
58  63  64
58  64  20
59  65  60
60  65  61
61  65  66
61  66  62
62  66  63
63  66  64
66  65  67
66  67  68
68  67  69
68  69  70
70  69  71
71  69  72
71  72  73
73  72  74
73  74  75
75  74  26
75  26  27
65  59  67
59  54  67
67  54  69
54  49  69
49  44  69
69  44  72
44  39  72
72  39  74
39  25  74
74  25  26
25  76  26
77  78  79
80  81  78
78  81  79
81  82  79
82  83  79
66  68  80
80  68  81
68  70  81
70  71  81
81  71  82
71  73  82
73  75  82
82  75  83
75  27  83
84  90  85
90  91  85
85  91  86
91  92  86
86  92  87
92  93  87
93  77  87
87  77  88
77  79  88
88  79  89
79  83  89
89  83  30
83  27  30
30  27  29
27  28  29
96  64  101
96  101  97
97  101  102
97  102  98
98  102  103
98  103  99
99  103  104
99  104  100
100  104  95
100  95  94
64  66  101
66  80  101
80  78  101
101  78  102
78  77  102
102  77  103
77  93  103
103  93  104
93  92  104
92  91  104
104  91  95
91  90  95
84  112  105
105  112  106
106  112  107
107  112  108
108  112  109
109  112  110
110  112  111
111  112  88
88  112  87
87  112  86
86  112  85
85  112  84
105  112  84
5  114  4
4  114  2
2  114  1
1  114  30
30  114  89
89  114  88
88  114  111
111  114  110
110  114  109
109  114  113
113  114  5
105  116  94
94  116  100
100  116  99
99  116  98
98  116  115
115  116  109
109  116  108
108  116  107
107  116  106
106  116  105
94  116  105
98  117  97
97  117  24
97  24  96
98  115  118
98  118  117
117  118  19
117  19  24
115  119  118
118  119  8
118  8  19
115  109  113
115  113  119
119  113  5
119  5  8
120  94  95
120  95  121
121  95  90
121  90  122
122  90  123
123  90  84
123  84  124
124  84  105
124  105  125
125  105  94
125  94  120
126  127  128
128  127  129
127  130  129
129  130  131
130  132  131
131  132  133
132  134  133
134  135  133
133  135  136
135  137  136
136  137  138
137  139  138
139  140  138
138  140  141
140  142  141
141  142  143
142  144  143
143  144  145
144  146  145
146  147  145
145  147  148
147  149  148
126  150  127
127  150  130
130  150  132
132  150  134
134  150  135
135  150  137
137  150  139
139  150  140
140  150  142
142  150  144
144  150  146
146  150  147
147  150  149
151  152  153
152  154  153
153  154  155
154  156  155
155  156  157
156  158  157
158  159  157
157  159  160
159  161  160
160  161  162
161  163  162
162  163  164
163  165  164
164  165  166
165  167  166
152  128  154
128  129  154
154  129  156
129  131  156
156  131  158
131  133  158
133  136  158
158  136  159
136  138  159
159  138  161
138  141  161
161  141  163
141  143  163
163  143  165
143  145  165
165  145  167
145  148  167
168  169  170
169  171  170
170  171  172
171  173  172
172  173  174
173  175  174
175  176  174
174  176  177
176  178  177
177  178  179
178  180  179
179  180  181
180  182  181
169  151  153
169  153  171
171  153  155
171  155  173
173  155  157
173  157  175
175  157  160
175  160  176
176  160  162
176  162  178
178  162  164
178  164  180
180  164  166
180  166  182
183  184  185
183  185  186
186  185  187
186  187  188
188  187  189
188  189  190
190  189  191
190  191  192
192  191  193
192  193  194
194  193  195
194  195  196
184  168  170
184  170  185
185  170  172
185  172  187
187  172  174
187  174  189
189  174  177
189  177  191
191  177  179
191  179  193
193  179  181
193  181  195
197  198  199
197  199  200
200  199  201
200  201  202
202  201  203
202  203  204
204  203  205
204  205  206
206  205  207
206  207  208
208  207  209
208  209  210
198  183  186
198  186  199
199  186  188
199  188  201
201  188  190
201  190  203
203  190  192
203  192  205
205  192  194
205  194  207
207  194  196
207  196  209
120  197  200
120  200  125
125  200  202
125  202  124
124  202  204
124  204  123
123  204  206
123  206  122
122  206  208
122  208  121
121  208  210
121  210  211
20  64  21
21  64  22
22  64  96
22  96  23
23  96  24
				</DataArray>
				<DataArray type="Int32" Name="offsets" format="ascii">
					3 6 9 12 15 18 21 24 27 30 33 36 39 42 45 48 51 54 57 60 63 66 69 72 75 78 81 84 87 90 93 96 99 102 105 108 111 114 117 120 123 126 129 132 135 138 141 144 147 150 153 156 159 162 165 168 171 174 177 180 183 186 189 192 195 198 201 204 207 210 213 216 219 222 225 228 231 234 237 240 243 246 249 252 255 258 261 264 267 270 273 276 279 282 285 288 291 294 297 300 303 306 309 312 315 318 321 324 327 330 333 336 339 342 345 348 351 354 357 360 363 366 369 372 375 378 381 384 387 390 393 396 399 402 405 408 411 414 417 420 423 426 429 432 435 438 441 444 447 450 453 456 459 462 465 468 471 474 477 480 483 486 489 492 495 498 501 504 507 510 513 516 519 522 525 528 531 534 537 540 543 546 549 552 555 558 561 564 567 570 573 576 579 582 585 588 591 594 597 600 603 606 609 612 615 618 621 624 627 630 633 636 639 642 645 648 651 654 657 660 663 666 669 672 675 678 681 684 687 690 693 696 699 702 705 708 711 714 717 720 723 726 729 732 735 738 741 744 747 750 753 756 759 762 765 768 771 774 777 780 783 786 789 792 795 798 801 804 807 810 813 816 819 822 825 828 831 834 837 840 843 846 849 852 855 858 861 864 867 870 873 876 879 882 885 888 891 894 897 900 903 906 909 912 915 918 921 924 927 930 933 936 939 942 945 948 951 954 957 960 963 966 969 972 975 978 981 984 987 990 993 996 999 1002 1005 1008 1011 1014 1017 1020 1023 1026 1029 1032 1035 1038 1041 1044 1047 1050 1053 1056 1059 1062 1065 1068 1071 1074 1077 1080 1083 1086 1089 1092 1095 1098 1101 1104 1107 1110 1113 1116 1119 1122 1125 1128 1131 1134 1137 1140 1143 1146 1149 1152 1155 1158 1161 1164 1167 1170 1173 1176 1179 1182 1185 1188 1191 1194 
				</DataArray>
			</Polys>
		</Piece>
	</PolyData>
</VTKFile>
